# vtk DataFile Version 3.0
vtk output
ASCII
DATASET UNSTRUCTURED_GRID
POINTS 48 float
77 86 0 200 86 0 200 200 0 
77 200 0 67 25 0 105 25 0 
105 65 0 67 65 0 0 120 0 
77 120 0 77 200 0 0 200 0 
105 64 0 107 64 0 107 65 0 
105 65 0 0 0 0 33 0 0 
33 64 0 0 64 0 107 0 0 
200 0 0 200 65 0 107 65 0 
77 65 0 200 65 0 200 86 0 
77 86 0 0 64 0 67 64 0 
67 65 0 0 65 0 0 65 0 
77 65 0 77 120 0 0 120 0 
67 0 0 105 0 0 105 25 0 
67 25 0 105 0 0 107 0 0 
107 64 0 105 64 0 33 0 0 
67 0 0 67 64 0 33 64 0 

CELLS 12 60
4 0 1 2 3 
4 4 5 6 7 
4 8 9 10 11 
4 12 13 14 15 
4 16 17 18 19 
4 20 21 22 23 
4 24 25 26 27 
4 28 29 30 31 
4 32 33 34 35 
4 36 37 38 39 
4 40 41 42 43 
4 44 45 46 47 

CELL_TYPES 12
9
9
9
9
9
9
9
9
9
9
9
9

CELL_DATA 12
FIELD FieldData 2
rank 1 12 int
0 0 1 2 2 2 2 2 2 
3 3 3 
block 1 12 int
0 1 0 0 1 2 3 4 5 
0 1 2 
