# vtk DataFile Version 3.0
vtk output
ASCII
DATASET UNSTRUCTURED_GRID
POINTS 48 float
59 68 0 200 68 0 200 200 0 
59 200 0 49 7 0 123 7 0 
123 83 0 49 83 0 0 102 0 
95 102 0 95 200 0 0 200 0 
87 46 0 125 46 0 125 83 0 
87 83 0 0 0 0 51 0 0 
51 82 0 0 82 0 89 0 0 
200 0 0 200 83 0 89 83 0 
59 47 0 200 47 0 200 104 0 
59 104 0 0 46 0 85 46 0 
85 83 0 0 83 0 0 47 0 
95 47 0 95 138 0 0 138 0 
49 0 0 123 0 0 123 43 0 
49 43 0 87 0 0 125 0 0 
125 82 0 87 82 0 15 0 0 
85 0 0 85 82 0 15 82 0 

CELLS 12 60
4 0 1 2 3 
4 4 5 6 7 
4 8 9 10 11 
4 12 13 14 15 
4 16 17 18 19 
4 20 21 22 23 
4 24 25 26 27 
4 28 29 30 31 
4 32 33 34 35 
4 36 37 38 39 
4 40 41 42 43 
4 44 45 46 47 

CELL_TYPES 12
9
9
9
9
9
9
9
9
9
9
9
9

CELL_DATA 12
FIELD FieldData 2
rank 1 12 int
0 0 1 2 2 2 2 2 2 
3 3 3 
block 1 12 int
0 1 0 0 1 2 3 4 5 
0 1 2 
