# vtk DataFile Version 3.0
vtk output
ASCII
DATASET STRUCTURED_POINTS
DIMENSIONS 129 129 1
SPACING 1 1 1
ORIGIN 0 0 0
CELL_DATA 16384
FIELD FieldData 1
tex 2 16384 float
0.604497 1 0 1 0.366764 1 0 1 0 
1 0.426197 1 0.175171 1 0.0375367 1 0 1 
0.5435 1 0.5435 1 0 1 0 1 0.748387 
1 0.306549 1 0 1 0 1 0 1 
0 1 0.415249 1 0.664712 1 0.0273705 1 0.0422287 
1 0.423851 1 0 1 0.537243 1 0 1 
0.0054741 1 0.306549 1 0.0531769 1 0 1 0 
1 0.33392 1 0 1 0.549756 1 0.471554 1 
0.744477 1 0 1 0 1 0.677224 1 0.421505 
1 0.0735093 1 0.523167 1 0 1 0.332356 1 
0.561486 1 0 1 0 1 0.728837 1 0 
1 0 1 0 1 0 1 0 1 
0 1 0.609971 1 0.20958 1 0 1 0.0375367 
1 0.588856 1 0.262757 1 0 1 0.505963 1 
0 1 0 1 0 1 0.605279 1 0 
1 0.792962 1 0 1 0 1 0.292473 1 
0.197067 1 0 1 0.786706 1 0 1 0.57869 
1 0.602933 1 0.521603 1 0 1 0 1 
0.057869 1 0.505181 1 0.707722 1 0.218182 1 0.348778 
1 0.613099 1 0.382405 1 0 1 0 1 
0 1 0.190029 1 0.219746 1 0.286999 1 0 
1 0.132942 1 0 1 0 1 0.389443 1 
0 1 0 1 0 1 0 1 0.718671 
1 0.728055 1 0 1 0.0484849 1 0 1 
0.724145 1 0.403519 1 0.412903 1 0.254936 1 0.789834 
1 0.394917 1 0 1 0 1 0.212708 1 
0 1 0 1 0 1 0 1 0 
1 0 1 0.0719453 1 0.758553 1 0 1 
0 1 0 1 0.058651 1 0.400391 1 0 
1 0.307331 1 0 1 0 1 0 1 
0 1 0.22131 1 0.731183 1 0.423851 1 0.371457 
1 0.753079 1 0 1 0.0398827 1 0 1 
0 1 0.609189 1 0 1 0 1 0 
1 0.616227 1 0 1 0 1 0 1 
0.662366 1 0 1 0.100098 1 0.0125122 1 0.550538 
1 0 1 0 1 0 1 0 1 
0 1 0.69521 1 0 1 0 1 0.503617 
1 0 1 0 1 0.588856 1 0 1 
0 1 0 1 0 1 0 1 0 
1 0.580254 1 0 1 0 1 0 1 
0.8 1 0.71085 1 0.186119 1 0 1 0.24477 
1 0.280743 1 0 1 0.410557 1 0 1 
0.473118 1 0.677224 1 0.329228 1 0.673314 1 0 
1 0.215054 1 0.332356 1 0 1 0.430108 1 
0.374585 1 0.229912 1 0.142326 1 0.122776 1 0.457478 
1 0 1 0.642033 1 0.0258065 1 0 1 
0 1 0.427762 1 0.398827 1 0 1 0.764809 
1 0.599023 1 0.443402 1 0.713196 1 0.499707 1 
0.674096 1 0 1 0.127468 1 0.169697 1 0 
1 0 1 0.571652 1 0 1 0.104008 1 
0.0727273 1 0 1 0.219746 1 0.00234604 1 0.331574 
1 0.0211144 1 0 1 0 1 0.567742 1 
0 1 0 1 0 1 0.750733 1 0.191593 
1 0 1 0 1 0.144673 1 0 1 
0 1 0.254154 1 0 1 0.710068 1 0.521603 
1 0 1 0 1 0.119648 1 0.545064 1 
0 1 0 1 0.308895 1 0.310459 1 0 
1 0.399609 1 0.118084 1 0.46999 1 0 1 
0 1 0.676442 1 0.472336 1 0 1 0 
1 0 1 0 1 0.764809 1 0.444966 1 
0 1 0 1 0.118084 1 0 1 0.786706 
1 0.326882 1 0 1 0 1 0 1 
0 1 0 1 0.113392 1 0 1 0.452004 
1 0 1 0 1 0.20176 1 0 1 
0.391007 1 0 1 0.371457 1 0 1 0 
1 0 1 0 1 0.769501 1 0.10088 1 
0.159531 1 0.254936 1 0.503617 1 0.10088 1 0.520821 
1 0 1 0.497361 1 0 1 0 1 
0.642815 1 0 1 0.197849 1 0.380841 1 0.311241 
1 0.162659 1 0 1 0.0226784 1 0 1 
0 1 0 1 0.721799 1 0.340958 1 0.113392 
1 0.758553 1 0 1 0 1 0.328446 1 
0 1 0.10479 1 0.708504 1 0 1 0 
1 0 1 0 1 0 1 0 1 
0 1 0 1 0 1 0 1 0 
1 0.0735093 1 0.129814 1 0.056305 1 0.292473 1 
0.202542 1 0.107918 1 0 1 0.626393 1 0 
1 0 1 0.364418 1 0.279179 1 0 1 
0.362072 1 0.647507 1 0 1 0.746041 1 0 
1 0.521603 1 0.172043 1 0.5435 1 0 1 
0 1 0.727273 1 0.200196 1 0.688954 1 0 
1 0.376931 1 0 1 0.405083 1 0.480156 1 
0 1 0.654545 1 0 1 0 1 0.604497 
1 0.369892 1 0 1 0.761681 1 0.505963 1 
0.351124 1 0.66002 1 0 1 0.55132 1 0 
1 0 1 0 1 0 1 0 1 
0.562268 1 0.789834 1 0.764027 1 0 1 0 
1 0.681134 1 0.231476 1 0 1 0.430108 1 
0 1 0 1 0 1 0.411339 1 0.0821114 
1 0.330792 1 0.461388 1 0 1 0.701466 1 
0 1 0.351906 1 0 1 0 1 0 
1 0.584164 1 0.695992 1 0 1 0 1 
0 1 0 1 0.572434 1 0 1 0 
1 0 1 0 1 0.640469 1 0 1 
0 1 0 1 0.565396 1 0.593548 1 0.0148583 
1 0.709286 1 0 1 0 1 0.419941 1 
0.370674 1 0 1 0.0516129 1 0 1 0 
1 0 1 0.57087 1 0.391007 1 0.534115 1 
0.545846 1 0 1 0 1 0.159531 1 0 
1 0 1 0.733529 1 0.692864 1 0 1 
0.712414 1 0.435582 1 0 1 0.111046 1 0.360508 
1 0 1 0 1 0 1 0.79218 1 
0.172043 1 0 1 0.356598 1 0.25259 1 0 
1 0 1 0.412121 1 0 1 0 1 
0 1 0.705376 1 0 1 0 1 0.351906 
1 0 1 0 1 0.373803 1 0 1 
0.645943 1 0 1 0.291691 1 0 1 0 
1 0 1 0.168915 1 0.8 1 0 1 
0 1 0.122776 1 0 1 0.504399 1 0.493451 
1 0 1 0 1 0 1 0 1 
0 1 0.618573 1 0.581818 1 0.254936 1 0 
1 0 1 0 1 0.33392 1 0 1 
0.545846 1 0 1 0 1 0.544282 1 0 
1 0.164223 1 0 1 0.669404 1 0.56696 1 
0 1 0.663148 1 0.0750733 1 0 1 0 
1 0 1 0.0649071 1 0.611535 1 0 1 
0 1 0.503617 1 0 1 0 1 0 
1 0.170479 1 0 1 0 1 0 1 
0.170479 1 0.0649071 1 0 1 0 1 0 
1 0.311241 1 0 1 0.762463 1 0 1 
0.758553 1 0 1 0 1 0 1 0.312023 
1 0.215054 1 0.553666 1 0.226784 1 0.621701 1 
0.627175 1 0 1 0.33783 1 0.22522 1 0 
1 0.154839 1 0 1 0 1 0 1 
0 1 0 1 0 1 0 1 0 
1 0 1 0.00860215 1 0.153275 1 0.786706 1 
0.194721 1 0 1 0.65611 1 0 1 0 
1 0 1 0 1 0 1 0.1087 1 
0 1 0 1 0 1 0.31828 1 0 
1 0 1 0.480938 1 0 1 0.141544 1 
0.663148 1 0 1 0.125904 1 0 1 0 
1 0 1 0.790616 1 0.20567 1 0.186901 1 
0.0813294 1 0 1 0.175171 1 0.507527 1 0 
1 0 1 0 1 0.556794 1 0 1 
0.635777 1 0.556794 1 0 1 0 1 0 
1 0.602933 1 0.535679 1 0 1 0 1 
0.506745 1 0 1 0 1 0 1 0 
1 0 1 0.0445748 1 0.478592 1 0 1 
0 1 0.181427 1 0 1 0.254936 1 0.559922 
1 0.0938416 1 0 1 0 1 0.609971 1 
0 1 0 1 0.420723 1 0.443402 1 0.470772 
1 0.263539 1 0 1 0 1 0.562268 1 
0.114174 1 0 1 0.129032 1 0.387879 1 0.688172 
1 0.650635 1 0.445748 1 0 1 0.591202 1 
0.25259 1 0 1 0 1 0 1 0 
1 0 1 0.107918 1 0 1 0.423069 1 
0.24868 1 0.470772 1 0.414467 1 0.344868 1 0.207234 
1 0 1 0 1 0.296383 1 0 1 
0 1 0 1 0.31437 1 0 1 0 
1 0.35738 1 0 1 0 1 0.380841 1 
0.310459 1 0.222874 1 0 1 0.0625611 1 0.295601 
1 0.203324 1 0 1 0.537243 1 0.541153 1 
0.411339 1 0.583382 1 0.577126 1 0.756207 1 0 
1 0 1 0.368328 1 0.752297 1 0 1 
0.257282 1 0.368328 1 0.413685 1 0 1 0.529423 
1 0.321408 1 0.484848 1 0 1 0.789834 1 
0.12043 1 0 1 0 1 0.536461 1 0.275269 
1 0 1 0 1 0.433236 1 0 1 
0 1 0 1 0 1 0 1 0.418377 
1 0.66393 1 0.0117302 1 0.218964 1 0.514565 1 
0.437146 1 0 1 0.734311 1 0.21349 1 0 
1 0 1 0 1 0.77654 1 0.197067 1 
0 1 0.67566 1 0 1 0.55523 1 0.364418 
1 0.653763 1 0 1 0 1 0.0172043 1 
0.12825 1 0.565396 1 0.566178 1 0.34956 1 0.46608 
1 0 1 0 1 0.601369 1 0 1 
0.793744 1 0 1 0.556794 1 0 1 0.223656 
1 0 1 0.602933 1 0.136852 1 0 1 
0 1 0.00312805 1 0 1 0 1 0.396481 
1 0 1 0 1 0 1 0 1 
0.0633431 1 0 1 0 1 0 1 0.129814 
1 0 1 0 1 0 1 0.722581 1 
0.626393 1 0 1 0 1 0.597458 1 0 
1 0 1 0 1 0 1 0 1 
0 1 0.348778 1 0 1 0 1 0.00469208 
1 0 1 0 1 0.467644 1 0.414467 1 
0.0531769 1 0.435582 1 0.312023 1 0 1 0.172825 
1 0 1 0.308895 1 0.501271 1 0.527077 1 
0 1 0.567742 1 0.43089 1 0 1 0.224438 
1 0.652981 1 0.297165 1 0 1 0.548974 1 
0.247898 1 0.00703812 1 0 1 0 1 0.0828935 
1 0.416813 1 0.620919 1 0 1 0.175953 1 
0.0437928 1 0 1 0 1 0 1 0 
1 0 1 0.056305 1 0.12825 1 0.579472 1 
0.237732 1 0.0398827 1 0.382405 1 0.365982 1 0.416031 
1 0 1 0 1 0 1 0 1 
0.35738 1 0 1 0 1 0 1 0 
1 0.119648 1 0 1 0 1 0.228348 1 
0.667058 1 0.556794 1 0.46217 1 0 1 0.545064 
1 0.265103 1 0 1 0 1 0 1 
0 1 0 1 0 1 0.0453568 1 0.789834 
1 0 1 0 1 0 1 0 1 
0.434018 1 0 1 0 1 0.000782014 1 0.685044 
1 0 1 0 1 0 1 0 1 
0.0234604 1 0 1 0.301857 1 0 1 0 
1 0 1 0.391789 1 0 1 0 1 
0.461388 1 0.591202 1 0.5435 1 0 1 0.429326 
1 0.0281525 1 0.0977517 1 0 1 0 1 
0 1 0.778886 1 0.150147 1 0.280743 1 0.491105 
1 0 1 0 1 0 1 0 1 
0.486413 1 0 1 0 1 0.100098 1 0.44262 
1 0 1 0 1 0.763245 1 0 1 
0.285435 1 0 1 0.670968 1 0 1 0 
1 0 1 0.779668 1 0 1 0.207234 1 
0 1 0 1 0 1 0 1 0.200978 
1 0.339394 1 0 1 0.650635 1 0.718671 1 
0 1 0 1 0 1 0.195503 1 0.608407 
1 0.556012 1 0 1 0 1 0 1 
0 1 0 1 0 1 0.36129 1 0.210362 
1 0 1 0.532551 1 0 1 0 1 
0 1 0.0930596 1 0.167351 1 0 1 0 
1 0.0907136 1 0.437928 1 0 1 0 1 
0 1 0.00469208 1 0.140762 1 0.479374 1 0 
1 0 1 0.34565 1 0.0656891 1 0.549756 1 
0.300293 1 0.669404 1 0 1 0.0985337 1 0 
1 0.778886 1 0.0234604 1 0 1 0.0641251 1 
0.395699 1 0.615445 1 0.747605 1 0.200196 1 0.287781 
1 0.615445 1 0 1 0.399609 1 0.599805 1 
0 1 0.538025 1 0 1 0.545846 1 0 
1 0.605279 1 0 1 0 1 0.0289345 1 
0.184555 1 0 1 0.176735 1 0.45044 1 0.522385 
1 0.493451 1 0.297165 1 0 1 0.179863 1 
0.186901 1 0 1 0 1 0.522385 1 0 
1 0 1 0.13216 1 0.595112 1 0.127468 1 
0.0375367 1 0.529423 1 0 1 0.0993157 1 0.759335 
1 0 1 0 1 0.387097 1 0.496579 1 
0 1 0.731183 1 0 1 0 1 0.0140762 
1 0 1 0.474682 1 0.577908 1 0 1 
0.397263 1 0 1 0 1 0 1 0 
1 0.0422287 1 0.35347 1 0.415249 1 0 1 
0.617791 1 0 1 0.0516129 1 0.354252 1 0 
1 0.782014 1 0 1 0 1 0 1 
0.373803 1 0 1 0.262757 1 0 1 0 
1 0.356598 1 0.595112 1 0 1 0 1 
0.164223 1 0 1 0.136852 1 0.297947 1 0.752297 
1 0 1 0 1 0.772629 1 0.204106 1 
0.056305 1 0.0985337 1 0.420723 1 0 1 0.127468 
1 0.414467 1 0 1 0 1 0 1 
0.0836755 1 0 1 0 1 0.673314 1 0.294819 
1 0 1 0.339394 1 0 1 0 1 
0 1 0 1 0.261975 1 0.57087 1 0.461388 
1 0.697556 1 0 1 0 1 0 1 
0 1 0 1 0.606843 1 0 1 0.669404 
1 0.559922 1 0 1 0 1 0.311241 1 
0.748387 1 0.484848 1 0.289345 1 0 1 0 
1 0 1 0.431672 1 0 1 0.363636 1 
0.321408 1 0 1 0 1 0 1 0.192375 
1 0 1 0 1 0 1 0.0664712 1 
0 1 0 1 0 1 0.337048 1 0 
1 0 1 0 1 0 1 0 1 
0.377713 1 0.231476 1 0.0836755 1 0.172825 1 0 
1 0.642033 1 0 1 0 1 0.422287 1 
0.534897 1 0 1 0.6913 1 0 1 0.194721 
1 0.569306 1 0 1 0 1 0 1 
0 1 0 1 0.210362 1 0.306549 1 0 
1 0.0641251 1 0.367546 1 0.186119 1 0 1 
0 1 0.636559 1 0 1 0 1 0 
1 0.393353 1 0.00234604 1 0.212708 1 0 1 
0.531769 1 0.340176 1 0 1 0 1 0 
1 0 1 0.149365 1 0.771065 1 0.107136 1 
0 1 0.636559 1 0 1 0.756989 1 0.136852 
1 0 1 0.484848 1 0 1 0 1 
0 1 0 1 0 1 0 1 0.0508309 
1 0 1 0 1 0.277615 1 0 1 
0 1 0.233822 1 0 1 0.407429 1 0 
1 0 1 0.660802 1 0.66784 1 0 1 
0 1 0.581036 1 0 1 0.263539 1 0 
1 0 1 0.642033 1 0.505181 1 0 1 
0.0359726 1 0.0328446 1 0 1 0 1 0 
1 0.121994 1 0.613881 1 0.0492669 1 0.415249 1 
0 1 0.743695 1 0.175953 1 0 1 0 
1 0 1 0 1 0 1 0.163441 1 
0 1 0.0711632 1 0 1 0.559922 1 0.565396 
1 0.395699 1 0 1 0.20958 1 0.569306 1 
0.302639 1 0 1 0 1 0.160313 1 0 
1 0.186119 1 0.348778 1 0 1 0 1 
0 1 0 1 0.375367 1 0.688954 1 0 
1 0.782014 1 0 1 0 1 0 1 
0 1 0.355816 1 0.0273705 1 0.419159 1 0.0250244 
1 0.602933 1 0.473118 1 0.658456 1 0 1 
0.263539 1 0.185337 1 0.429326 1 0 1 0 
1 0 1 0.344086 1 0 1 0 1 
0.322972 1 0 1 0.790616 1 0.774194 1 0 
1 0 1 0.680352 1 0 1 0 1 
0.694428 1 0 1 0 1 0 1 0.249462 
1 0 1 0.118084 1 0 1 0.798436 1 
0.511437 1 0.374585 1 0.746041 1 0.552884 1 0 
1 0.652199 1 0 1 0 1 0 1 
0.433236 1 0 1 0.45826 1 0 1 0 
1 0 1 0.127468 1 0 1 0 1 
0.756207 1 0 1 0.657674 1 0.12434 1 0.0328446 
1 0.274487 1 0 1 0.0875855 1 0 1 
0.0766373 1 0.415249 1 0 1 0 1 0.0172043 
1 0.448876 1 0.685826 1 0.413685 1 0.539589 1 
0.589638 1 0.55914 1 0 1 0 1 0.0179863 
1 0 1 0.153275 1 0 1 0.537243 1 
0 1 0.276833 1 0.0523949 1 0 1 0 
1 0.11261 1 0.737439 1 0 1 0.176735 1 
0.304203 1 0 1 0.469208 1 0.133724 1 0.0203324 
1 0 1 0 1 0.552884 1 0 1 
0 1 0 1 0.609971 1 0 1 0.57087 
1 0.0617791 1 0 1 0 1 0 1 
0 1 0.471554 1 0 1 0 1 0 
1 0.740567 1 0.744477 1 0.344086 1 0.405083 1 
0.665494 1 0 1 0 1 0 1 0.735875 
1 0.48172 1 0.579472 1 0 1 0 1 
0 1 0 1 0.415249 1 0 1 0.392571 
1 0.129032 1 0.781232 1 0 1 0.459824 1 
0 1 0.218182 1 0.425415 1 0.55914 1 0 
1 0 1 0 1 0 1 0.534115 1 
0.0774194 1 0.43871 1 0 1 0.488759 1 0.534115 
1 0 1 0 1 0 1 0 1 
0.396481 1 0 1 0 1 0.457478 1 0.471554 
1 0.352688 1 0.12043 1 0.401955 1 0 1 
0 1 0.584946 1 0.0250244 1 0 1 0 
1 0 1 0 1 0 1 0.0406647 1 
0.417595 1 0.2565 1 0 1 0 1 0 
1 0 1 0.0273705 1 0 1 0 1 
0.196285 1 0.0852395 1 0.306549 1 0.441838 1 0 
1 0 1 0 1 0 1 0 1 
0 1 0.47781 1 0.488759 1 0 1 0 
1 0 1 0.748387 1 0.617791 1 0.410557 1 
0.389443 1 0 1 0 1 0.520039 1 0.557576 
1 0.3261 1 0.389443 1 0 1 0.383969 1 
0 1 0 1 0.568524 1 0 1 0.427762 
1 0.22131 1 0 1 0 1 0 1 
0.484848 1 0.223656 1 0 1 0.56305 1 0.424633 
1 0 1 0.750733 1 0 1 0.188465 1 
0.330792 1 0 1 0 1 0.47781 1 0 
1 0 1 0 1 0.626393 1 0.736657 1 
0.545064 1 0 1 0 1 0 1 0 
1 0.656892 1 0 1 0.422287 1 0 1 
0 1 0 1 0.183773 1 0.114956 1 0 
1 0 1 0 1 0 1 0 1 
0 1 0 1 0.720235 1 0.200978 1 0 
1 0 1 0 1 0.521603 1 0 1 
0 1 0 1 0 1 0.00312805 1 0 
1 0 1 0.749169 1 0 1 0 1 
0.219746 1 0 1 0 1 0.68739 1 0 
1 0 1 0.222874 1 0.762463 1 0 1 
0 1 0 1 0 1 0 1 0 
1 0.405083 1 0.0977517 1 0.333138 1 0.562268 1 
0.348778 1 0.0860215 1 0.613099 1 0.0797654 1 0.352688 
1 0 1 0.275269 1 0 1 0 1 
0 1 0.237732 1 0.606061 1 0.270577 1 0 
1 0.264321 1 0 1 0 1 0 1 
0.0437928 1 0.45826 1 0.387879 1 0.161877 1 0 
1 0.0914956 1 0.779668 1 0.692082 1 0.393353 1 
0 1 0 1 0.294037 1 0.644379 1 0.129814 
1 0 1 0.127468 1 0 1 0.0461388 1 
0 1 0 1 0.118866 1 0.374585 1 0.304203 
1 0 1 0.70694 1 0.339394 1 0.33001 1 
0 1 0.520821 1 0 1 0.246334 1 0 
1 0 1 0.0477028 1 0.651417 1 0.718671 1 
0.735875 1 0.721017 1 0 1 0.616227 1 0 
1 0 1 0.13607 1 0.45826 1 0 1 
0 1 0.0250244 1 0 1 0.642815 1 0 
1 0 1 0.417595 1 0 1 0.689736 1 
0 1 0.22131 1 0 1 0.695992 1 0.469208 
1 0 1 0.311241 1 0 1 0.649853 1 
0.420723 1 0.752297 1 0.336266 1 0.463734 1 0 
1 0 1 0 1 0.599805 1 0 1 
0.704594 1 0 1 0 1 0 1 0 
1 0.270577 1 0.151711 1 0.59433 1 0.575562 1 
0 1 0.703812 1 0 1 0 1 0 
1 0.057869 1 0 1 0.568524 1 0.703812 1 
0 1 0.287781 1 0 1 0.0719453 1 0 
1 0 1 0 1 0 1 0.12825 1 
0.333138 1 0.0766373 1 0.539589 1 0 1 0 
1 0 1 0.45044 1 0.650635 1 0.70303 1 
0 1 0 1 0 1 0 1 0.615445 
1 0 1 0 1 0 1 0.508309 1 
0.717889 1 0 1 0 1 0 1 0 
1 0 1 0 1 0 1 0 1 
0 1 0.70303 1 0.389443 1 0 1 0 
1 0.0899316 1 0.301857 1 0 1 0.305767 1 
0.550538 1 0 1 0.0969697 1 0 1 0.0609971 
1 0 1 0 1 0 1 0 1 
0 1 0 1 0 1 0.114174 1 0 
1 0.382405 1 0.56696 1 0.190029 1 0 1 
0 1 0.312805 1 0.781232 1 0.502835 1 0 
1 0 1 0.545064 1 0 1 0 1 
0.727273 1 0.290127 1 0.68739 1 0.635777 1 0 
1 0.343304 1 0.058651 1 0 1 0 1 
0.398827 1 0 1 0.387097 1 0.360508 1 0.399609 
1 0 1 0.592766 1 0.746823 1 0 1 
0 1 0.240078 1 0.11652 1 0.0875855 1 0 
1 0.0641251 1 0 1 0.778104 1 0.3261 1 
0.190811 1 0 1 0 1 0 1 0 
1 0 1 0.771065 1 0.667058 1 0.157967 1 
0 1 0 1 0 1 0.103226 1 0.157185 
1 0 1 0.271359 1 0 1 0.460606 1 
0.351906 1 0.468426 1 0.346432 1 0.294819 1 0.305767 
1 0.480156 1 0.343304 1 0.118866 1 0.536461 1 
0 1 0.796872 1 0 1 0.558358 1 0 
1 0.32219 1 0.67957 1 0.65611 1 0 1 
0.634995 1 0 1 0.299511 1 0 1 0 
1 0 1 0 1 0.00703812 1 0 1 
0.383969 1 0.511437 1 0.517693 1 0.516129 1 0.639687 
1 0.301857 1 0 1 0.286217 1 0 1 
0 1 0 1 0.311241 1 0 1 0.267449 
1 0 1 0 1 0.55523 1 0 1 
0 1 0.115738 1 0.23304 1 0.533333 1 0 
1 0.68348 1 0.251808 1 0 1 0 1 
0 1 0.114956 1 0.48172 1 0.00391007 1 0.736657 
1 0.305767 1 0.412903 1 0 1 0 1 
0 1 0.275269 1 0.211144 1 0.232258 1 0 
1 0 1 0.667058 1 0.0993157 1 0.507527 1 
0.0383187 1 0 1 0.366764 1 0 1 0 
1 0.301075 1 0.12434 1 0 1 0 1 
0.604497 1 0.532551 1 0.00860215 1 0 1 0.635777 
1 0.448876 1 0 1 0 1 0.230694 1 
0 1 0 1 0 1 0.332356 1 0 
1 0.2565 1 0.411339 1 0.575562 1 0.674096 1 
0.185337 1 0.372239 1 0 1 0 1 0 
1 0 1 0 1 0 1 0 1 
0 1 0.298729 1 0.0398827 1 0.058651 1 0.161877 
1 0 1 0.452786 1 0.665494 1 0 1 
0 1 0.33783 1 0.67175 1 0.234604 1 0.144673 
1 0.286217 1 0 1 0.747605 1 0 1 
0.471554 1 0.294819 1 0 1 0 1 0 
1 0.370674 1 0 1 0 1 0.502053 1 
0.756207 1 0.324536 1 0 1 0.0398827 1 0 
1 0 1 0.355816 1 0.477028 1 0.599023 1 
0.6913 1 0.10479 1 0 1 0 1 0 
1 0.0836755 1 0.532551 1 0 1 0 1 
0 1 0.667058 1 0.465298 1 0 1 0.527077 
1 0.785924 1 0 1 0 1 0.0148583 1 
0 1 0 1 0.737439 1 0 1 0.155621 
1 0 1 0 1 0 1 0 1 
0.774194 1 0 1 0.418377 1 0.222874 1 0 
1 0.576344 1 0 1 0 1 0 1 
0.472336 1 0 1 0 1 0.670186 1 0.66784 
1 0 1 0.527859 1 0.584164 1 0.514565 1 
0.279179 1 0 1 0 1 0.427762 1 0.531769 
1 0 1 0.258847 1 0.695992 1 0 1 
0 1 0 1 0.35347 1 0.734311 1 0 
1 0.22131 1 0.761681 1 0 1 0.0938416 1 
0 1 0.332356 1 0 1 0.669404 1 0 
1 0.770283 1 0 1 0.265885 1 0 1 
0 1 0.420723 1 0 1 0.428544 1 0.654545 
1 0.744477 1 0.530205 1 0 1 0 1 
0.194721 1 0.753861 1 0 1 0 1 0 
1 0.47781 1 0 1 0 1 0 1 
0.10088 1 0 1 0 1 0.197067 1 0 
1 0 1 0 1 0.710068 1 0.156403 1 
0.129814 1 0 1 0 1 0.669404 1 0.48172 
1 0.498925 1 0.670968 1 0.537243 1 0 1 
0.312805 1 0 1 0 1 0 1 0 
1 0.697556 1 0.534115 1 0.0922776 1 0 1 
0.541153 1 0.502835 1 0.363636 1 0 1 0.459824 
1 0 1 0 1 0.0258065 1 0.280743 1 
0 1 0.684262 1 0.296383 1 0 1 0.529423 
1 0 1 0.461388 1 0.0477028 1 0.595894 1 
0 1 0 1 0 1 0.223656 1 0 
1 0.354252 1 0 1 0 1 0.140762 1 
0.0735093 1 0.717889 1 0 1 0 1 0.794526 
1 0.475464 1 0 1 0 1 0 1 
0 1 0 1 0.0258065 1 0.552884 1 0 
1 0.389443 1 0.455914 1 0.717107 1 0 1 
0.347214 1 0 1 0 1 0.55132 1 0 
1 0.162659 1 0 1 0.385533 1 0.2174 1 
0.757771 1 0.195503 1 0.763245 1 0.381623 1 0.101662 
1 0.769501 1 0.685826 1 0.173607 1 0 1 
0.0054741 1 0 1 0 1 0 1 0.626393 
1 0.0398827 1 0.768719 1 0 1 0.513001 1 
0 1 0 1 0 1 0 1 0.459042 
1 0.109482 1 0 1 0 1 0.103226 1 
0 1 0.66002 1 0 1 0.401173 1 0 
1 0 1 0.524731 1 0 1 0.404301 1 
0.421505 1 0.0946237 1 0 1 0.722581 1 0 
1 0.534897 1 0 1 0.222092 1 0.308895 1 
0 1 0.312805 1 0.665494 1 0 1 0.193939 
1 0.0985337 1 0 1 0 1 0.5826 1 
0 1 0.518475 1 0.161095 1 0.67957 1 0.0179863 
1 0.0844575 1 0 1 0.150147 1 0 1 
0 1 0 1 0.288563 1 0.624047 1 0 
1 0.575562 1 0 1 0.533333 1 0 1 
0 1 0.464516 1 0.280743 1 0 1 0.125122 
1 0.233822 1 0 1 0.135288 1 0.179081 1 
0.537243 1 0 1 0.323754 1 0 1 0 
1 0 1 0.709286 1 0.463734 1 0 1 
0 1 0.273705 1 0 1 0 1 0 
1 0.34956 1 0 1 0.559922 1 0 1 
0 1 0 1 0 1 0.66784 1 0 
1 0.633431 1 0 1 0.67957 1 0 1 
0.22522 1 0 1 0.211926 1 0 1 0 
1 0.13607 1 0 1 0.42698 1 0 1 
0 1 0 1 0.057869 1 0.799218 1 0.600587 
1 0.0977517 1 0 1 0.131378 1 0 1 
0 1 0 1 0 1 0.340176 1 0.618573 
1 0 1 0.170479 1 0 1 0 1 
0.347214 1 0.0258065 1 0 1 0 1 0 
1 0 1 0 1 0.743695 1 0 1 
0 1 0 1 0 1 0 1 0.0844575 
1 0 1 0 1 0.212708 1 0 1 
0.385533 1 0 1 0.634213 1 0.20567 1 0.171261 
1 0.226002 1 0.304203 1 0.166569 1 0.742913 1 
0 1 0.611535 1 0 1 0 1 0 
1 0.493451 1 0 1 0 1 0.460606 1 
0 1 0.284653 1 0.726491 1 0.157967 1 0 
1 0.0907136 1 0.633431 1 0.558358 1 0.0140762 1 
0 1 0 1 0 1 0 1 0.59824 
1 0 1 0 1 0.0914956 1 0 1 
0.716325 1 0.523949 1 0.276833 1 0.305767 1 0 
1 0.172043 1 0.265103 1 0 1 0.0140762 1 
0 1 0 1 0.731965 1 0 1 0.628739 
1 0.31437 1 0.584164 1 0.665494 1 0 1 
0 1 0 1 0 1 0 1 0.702248 
1 0.103226 1 0 1 0 1 0.274487 1 
0.753861 1 0.289345 1 0.281525 1 0 1 0.0641251 
1 0.457478 1 0 1 0 1 0.621701 1 
0.67566 1 0 1 0 1 0 1 0.394917 
1 0.653763 1 0.514565 1 0 1 0 1 
0 1 0 1 0 1 0 1 0 
1 0.347996 1 0.281525 1 0 1 0.279179 1 
0.22522 1 0.735875 1 0.501271 1 0.595894 1 0.125904 
1 0 1 0 1 0 1 0 1 
0 1 0.621701 1 0.20176 1 0 1 0 
1 0 1 0.489541 1 0.684262 1 0.251808 1 
0.487195 1 0 1 0.100098 1 0.298729 1 0 
1 0 1 0.106354 1 0 1 0.20958 1 
0 1 0.10088 1 0 1 0 1 0 
1 0 1 0 1 0.161877 1 0 1 
0.600587 1 0 1 0 1 0.056305 1 0.366764 
1 0 1 0 1 0 1 0.771065 1 
0.187683 1 0 1 0 1 0 1 0 
1 0.157967 1 0.54741 1 0 1 0.0649071 1 
0 1 0 1 0 1 0.68348 1 0 
1 0.121994 1 0.0961877 1 0.647507 1 0.755425 1 
0.0359726 1 0.0477028 1 0.66393 1 0.11261 1 0 
1 0.641251 1 0 1 0 1 0.181427 1 
0.319062 1 0.479374 1 0.523949 1 0 1 0.0430108 
1 0 1 0 1 0 1 0 1 
0 1 0 1 0.789834 1 0 1 0 
1 0.649853 1 0 1 0 1 0.330792 1 
0 1 0 1 0 1 0 1 0.0250244 
1 0 1 0.0860215 1 0.779668 1 0.693646 1 
0.537243 1 0 1 0 1 0.66784 1 0 
1 0 1 0.190029 1 0 1 0 1 
0 1 0 1 0 1 0 1 0.573998 
1 0.471554 1 0 1 0 1 0 1 
0 1 0.177517 1 0.182209 1 0 1 0.000782014 
1 0 1 0 1 0.358162 1 0 1 
0.327664 1 0 1 0 1 0.746823 1 0.0179863 
1 0 1 0.410557 1 0.301075 1 0.688172 1 
0.634995 1 0 1 0 1 0.487977 1 0 
1 0.265103 1 0 1 0.498925 1 0.523167 1 
0 1 0.515347 1 0.207234 1 0.0203324 1 0 
1 0.789834 1 0 1 0 1 0 1 
0 1 0 1 0 1 0 1 0 
1 0.165787 1 0.513783 1 0.448094 1 0.301075 1 
0 1 0.0961877 1 0.358944 1 0 1 0 
1 0.110264 1 0.468426 1 0.434018 1 0 1 
0 1 0.387097 1 0.709286 1 0.0649071 1 0 
1 0.290127 1 0 1 0.0805474 1 0.239296 1 
0.673314 1 0 1 0 1 0 1 0 
1 0.730401 1 0 1 0.662366 1 0.77654 1 
0 1 0.650635 1 0.638905 1 0 1 0.67175 
1 0.358944 1 0.513783 1 0.55523 1 0 1 
0 1 0 1 0.652981 1 0 1 0 
1 0 1 0 1 0.374585 1 0.154839 1 
0 1 0.321408 1 0.744477 1 0 1 0 
1 0.373803 1 0 1 0 1 0 1 
0 1 0.302639 1 0 1 0.414467 1 0.182209 
1 0 1 0 1 0.719453 1 0.789052 1 
0.109482 1 0.366764 1 0 1 0 1 0 
1 0.55132 1 0.222874 1 0 1 0 1 
0 1 0.327664 1 0 1 0.591984 1 0.0250244 
1 0 1 0 1 0 1 0 1 
0.243206 1 0 1 0.154057 1 0 1 0.650635 
1 0.219746 1 0.573998 1 0.326882 1 0 1 
0.627957 1 0.577908 1 0 1 0 1 0.461388 
1 0 1 0.506745 1 0.638905 1 0 1 
0.502053 1 0 1 0.276833 1 0 1 0.377713 
1 0.394135 1 0 1 0 1 0.423851 1 
0.254936 1 0.686608 1 0 1 0.110264 1 0.319062 
1 0.309677 1 0 1 0 1 0.677224 1 
0 1 0.0445748 1 0 1 0.3652 1 0 
1 0.612317 1 0.233822 1 0 1 0 1 
0.770283 1 0.8 1 0 1 0.8 1 0 
1 0 1 0 1 0 1 0 1 
0 1 0 1 0.593548 1 0 1 0.279961 
1 0.637341 1 0 1 0 1 0.158749 1 
0.480938 1 0 1 0 1 0 1 0 
1 0 1 0 1 0.434018 1 0.200978 1 
0.161095 1 0 1 0 1 0.460606 1 0 
1 0 1 0.411339 1 0 1 0 1 
0 1 0 1 0.59824 1 0 1 0 
1 0 1 0.486413 1 0.79218 1 0.638905 1 
0.444184 1 0.117302 1 0 1 0 1 0.0852395 
1 0 1 0 1 0 1 0 1 
0.419159 1 0 1 0 1 0.197067 1 0.457478 
1 0 1 0.267449 1 0 1 0 1 
0 1 0 1 0.542718 1 0.055523 1 0.67566 
1 0 1 0.701466 1 0 1 0.265885 1 
0 1 0.115738 1 0 1 0.595112 1 0 
1 0.529423 1 0 1 0 1 0.32219 1 
0 1 0 1 0 1 0 1 0.468426 
1 0.444184 1 0.394917 1 0.491887 1 0.740567 1 
0 1 0.491105 1 0.204888 1 0.0312805 1 0 
1 0 1 0.496579 1 0 1 0.274487 1 
0.0187683 1 0.136852 1 0.488759 1 0 1 0.339394 
1 0 1 0.455132 1 0.584164 1 0 1 
0.298729 1 0.292473 1 0.301075 1 0 1 0.0688172 
1 0.466862 1 0 1 0 1 0 1 
0.334702 1 0.0883675 1 0.260411 1 0 1 0 
1 0 1 0.548192 1 0.451222 1 0 1 
0.697556 1 0.425415 1 0 1 0 1 0 
1 0.779668 1 0 1 0.0477028 1 0.380059 1 
0 1 0 1 0 1 0 1 0.0875855 
1 0 1 0 1 0.793744 1 0 1 
0.439492 1 0 1 0.55914 1 0 1 0 
1 0 1 0.101662 1 0.380059 1 0.0469208 1 
0.355816 1 0 1 0 1 0 1 0 
1 0.735093 1 0 1 0.351906 1 0 1 
0.68739 1 0.798436 1 0.439492 1 0 1 0 
1 0 1 0.0993157 1 0 1 0.677224 1 
0.151711 1 0.531769 1 0.525513 1 0.778886 1 0.365982 
1 0.127468 1 0 1 0 1 0 1 
0 1 0 1 0 1 0.111046 1 0 
1 0 1 0 1 0 1 0 1 
0.226784 1 0 1 0 1 0 1 0.778886 
1 0.478592 1 0 1 0.681916 1 0 1 
0.0500489 1 0.740567 1 0 1 0 1 0.760117 
1 0 1 0.373021 1 0.226002 1 0.368328 1 
0 1 0.344868 1 0 1 0.692864 1 0.158749 
1 0 1 0.308113 1 0.607625 1 0 1 
0.651417 1 0 1 0.538025 1 0 1 0 
1 0 1 0 1 0 1 0.577126 1 
0.546628 1 0 1 0 1 0.251026 1 0.134506 
1 0 1 0 1 0 1 0 1 
0.550538 1 0 1 0 1 0.737439 1 0 
1 0 1 0 1 0 1 0 1 
0 1 0.13216 1 0.00234604 1 0 1 0.140762 
1 0 1 0 1 0.142326 1 0.157967 1 
0 1 0 1 0.534897 1 0 1 0 
1 0.539589 1 0.413685 1 0.258847 1 0 1 
0.373803 1 0 1 0 1 0.2565 1 0.0742913 
1 0.696774 1 0.355816 1 0 1 0.118084 1 
0 1 0 1 0 1 0.521603 1 0 
1 0.753861 1 0.706158 1 0 1 0.528641 1 
0 1 0 1 0 1 0.162659 1 0.13607 
1 0.0125122 1 0.13216 1 0.0868035 1 0.288563 1 
0.448876 1 0.771065 1 0 1 0 1 0 
1 0 1 0.196285 1 0 1 0 1 
0 1 0 1 0 1 0 1 0 
1 0.0187683 1 0 1 0 1 0.0234604 1 
0 1 0.709286 1 0 1 0 1 0.709286 
1 0.731183 1 0 1 0 1 0 1 
0.437928 1 0.137634 1 0 1 0.389443 1 0 
1 0 1 0.651417 1 0 1 0.749951 1 
0.466862 1 0 1 0.439492 1 0.377713 1 0.602933 
1 0 1 0 1 0.265885 1 0.137634 1 
0 1 0 1 0 1 0 1 0.410557 
1 0 1 0 1 0.304203 1 0.663148 1 
0 1 0 1 0.774194 1 0.00312805 1 0 
1 0 1 0 1 0.24086 1 0.363636 1 
0 1 0.712414 1 0 1 0.674878 1 0.200196 
1 0 1 0.587292 1 0.67175 1 0.338612 1 
0.56696 1 0 1 0 1 0 1 0 
1 0.324536 1 0.420723 1 0 1 0 1 
0.420723 1 0 1 0 1 0.0727273 1 0.322972 
1 0.625611 1 0.211926 1 0.246334 1 0 1 
0 1 0.147801 1 0.605279 1 0.496579 1 0.516129 
1 0 1 0 1 0.261975 1 0.122776 1 
0 1 0 1 0 1 0 1 0 
1 0 1 0.147019 1 0 1 0 1 
0 1 0 1 0 1 0.364418 1 0.426197 
1 0 1 0.129814 1 0 1 0.740567 1 
0.326882 1 0.0242424 1 0 1 0 1 0 
1 0.133724 1 0 1 0 1 0.452004 1 
0 1 0.789052 1 0 1 0 1 0 
1 0.111828 1 0.266667 1 0.247116 1 0 1 
0 1 0.283089 1 0.129814 1 0 1 0.257282 
1 0.303421 1 0.513001 1 0.48172 1 0 1 
0.0297165 1 0.268231 1 0.0625611 1 0.435582 1 0.392571 
1 0 1 0 1 0.229912 1 0.20176 1 
0 1 0 1 0 1 0 1 0 
1 0.351124 1 0 1 0 1 0.527077 1 
0.260411 1 0 1 0 1 0 1 0.000782014 
1 0 1 0 1 0 1 0 1 
0.778886 1 0 1 0.0805474 1 0 1 0 
1 0.254936 1 0 1 0.764809 1 0 1 
0.279179 1 0.13216 1 0 1 0 1 0 
1 0.789052 1 0.0930596 1 0 1 0 1 
0 1 0.0328446 1 0.769501 1 0.628739 1 0 
1 0.175953 1 0.0805474 1 0.203324 1 0.350342 1 
0 1 0.193939 1 0 1 0.226002 1 0.439492 
1 0 1 0.706158 1 0 1 0.681916 1 
0.536461 1 0 1 0 1 0.445748 1 0 
1 0 1 0.606843 1 0 1 0 1 
0 1 0 1 0.721799 1 0.682698 1 0 
1 0.607625 1 0 1 0 1 0.186901 1 
0.799218 1 0.208798 1 0.300293 1 0.239296 1 0.596676 
1 0 1 0.793744 1 0 1 0.613099 1 
0 1 0.342522 1 0 1 0 1 0.513783 
1 0.370674 1 0 1 0.0813294 1 0.145455 1 
0 1 0 1 0 1 0 1 0.6913 
1 0.402737 1 0.745259 1 0 1 0 1 
0 1 0 1 0.718671 1 0.23304 1 0 
1 0.503617 1 0 1 0.78045 1 0 1 
0 1 0 1 0 1 0 1 0 
1 0.435582 1 0 1 0 1 0 1 
0 1 0.664712 1 0 1 0 1 0 
1 0.0437928 1 0.151711 1 0 1 0.78045 1 
0 1 0 1 0 1 0 1 0.612317 
1 0 1 0 1 0 1 0.695992 1 
0.0258065 1 0 1 0.414467 1 0 1 0.300293 
1 0.775758 1 0.154057 1 0 1 0 1 
0.182991 1 0 1 0 1 0.47781 1 0 
1 0.717889 1 0 1 0 1 0.439492 1 
0.0672532 1 0.621701 1 0 1 0.617009 1 0 
1 0 1 0.56696 1 0.0414467 1 0 1 
0.70694 1 0 1 0.057087 1 0 1 0.79609 
1 0.215836 1 0 1 0 1 0 1 
0 1 0.399609 1 0.549756 1 0.599023 1 0.756207 
1 0 1 0.552102 1 0 1 0 1 
0 1 0.729619 1 0 1 0.136852 1 0 
1 0.652199 1 0.226002 1 0 1 0.385533 1 
0 1 0.728837 1 0 1 0.56305 1 0.319062 
1 0.134506 1 0.722581 1 0 1 0.168133 1 
0.43871 1 0.297947 1 0.210362 1 0 1 0.645943 
1 0 1 0.188465 1 0.527077 1 0 1 
0.268231 1 0.417595 1 0.362072 1 0 1 0 
1 0.485631 1 0 1 0 1 0.534115 1 
0.0172043 1 0 1 0 1 0.655327 1 0 
1 0.301857 1 0.433236 1 0 1 0 1 
0.775758 1 0 1 0 1 0 1 0.597458 
1 0 1 0 1 0 1 0.634995 1 
0 1 0.606843 1 0 1 0 1 0 
1 0.362854 1 0.325318 1 0.195503 1 0 1 
0 1 0 1 0.562268 1 0 1 0 
1 0 1 0 1 0.170479 1 0 1 
0 1 0 1 0 1 0 1 0.529423 
1 0.325318 1 0 1 0 1 0 1 
0.22131 1 0.274487 1 0.24086 1 0.550538 1 0.764027 
1 0.622483 1 0 1 0.721799 1 0 1 
0 1 0 1 0 1 0 1 0 
1 0.0172043 1 0.779668 1 0 1 0.0430108 1 
0.327664 1 0.130596 1 0.637341 1 0.00860215 1 0.48172 
1 0 1 0 1 0 1 0 1 
0 1 0.737439 1 0 1 0.0875855 1 0.436364 
1 0 1 0.057869 1 0.444966 1 0 1 
0.306549 1 0.384751 1 0 1 0.312805 1 0 
1 0 1 0.326882 1 0 1 0 1 
0.447312 1 0.753079 1 0.55914 1 0 1 0.471554 
1 0 1 0.00860215 1 0.226002 1 0.309677 1 
0 1 0.596676 1 0 1 0.452786 1 0.443402 
1 0.215054 1 0 1 0.0930596 1 0 1 
0.129032 1 0.283089 1 0 1 0 1 0 
1 0 1 0.646725 1 0.212708 1 0.153275 1 
0.331574 1 0.518475 1 0 1 0.423851 1 0.057869 
1 0.376149 1 0 1 0.303421 1 0 1 
0.0789834 1 0 1 0.394917 1 0 1 0 
1 0.106354 1 0.172825 1 0.350342 1 0 1 
0.282307 1 0 1 0.795308 1 0 1 0 
1 0 1 0 1 0.713978 1 0.279961 1 
0 1 0.351124 1 0.641251 1 0.785924 1 0.24086 
1 0.461388 1 0 1 0.441838 1 0.114174 1 
0.405083 1 0.399609 1 0.584164 1 0.0656891 1 0.173607 
1 0.138416 1 0.308113 1 0.299511 1 0 1 
0.211144 1 0 1 0.131378 1 0 1 0.685826 
1 0 1 0.196285 1 0.71476 1 0.633431 1 
0 1 0.771847 1 0 1 0.200196 1 0.226784 
1 0 1 0.440274 1 0 1 0.575562 1 
0.412121 1 0.389443 1 0 1 0.281525 1 0.68739 
1 0 1 0.33001 1 0.0156403 1 0.732747 1 
0 1 0 1 0.767937 1 0 1 0 
1 0.455132 1 0 1 0 1 0.798436 1 
0.320626 1 0.46999 1 0 1 0.645161 1 0 
1 0 1 0 1 0.326882 1 0.0344086 1 
0.436364 1 0 1 0.104008 1 0.459824 1 0 
1 0 1 0.775758 1 0 1 0 1 
0 1 0 1 0.545064 1 0.165787 1 0 
1 0 1 0 1 0 1 0 1 
0 1 0.451222 1 0 1 0 1 0 
1 0.664712 1 0.233822 1 0.24477 1 0 1 
0 1 0.782796 1 0 1 0 1 0 
1 0 1 0 1 0.78827 1 0.466862 1 
0.265885 1 0.417595 1 0 1 0.0656891 1 0 
1 0 1 0.646725 1 0.545846 1 0.476246 1 
0.163441 1 0 1 0 1 0.160313 1 0.130596 
1 0.224438 1 0 1 0 1 0.157967 1 
0.634995 1 0.697556 1 0 1 0.631867 1 0.0719453 
1 0 1 0.127468 1 0 1 0.197067 1 
0.609189 1 0.413685 1 0 1 0 1 0 
1 0 1 0 1 0.313588 1 0 1 
0 1 0.694428 1 0.265885 1 0 1 0.47781 
1 0 1 0 1 0.624047 1 0.789834 1 
0 1 0 1 0.764027 1 0 1 0.658456 
1 0 1 0.621701 1 0.548974 1 0.674096 1 
0.502835 1 0 1 0 1 0.614663 1 0 
1 0 1 0.317498 1 0.468426 1 0 1 
0.336266 1 0 1 0 1 0.641251 1 0.382405 
1 0 1 0 1 0 1 0 1 
0 1 0.552884 1 0.651417 1 0 1 0 
1 0.441056 1 0 1 0.235386 1 0.46999 1 
0 1 0 1 0.379277 1 0 1 0.719453 
1 0.343304 1 0 1 0.208016 1 0.371457 1 
0 1 0 1 0 1 0 1 0.526295 
1 0.0735093 1 0 1 0.449658 1 0.5435 1 
0.534115 1 0.596676 1 0 1 0.522385 1 0.785924 
1 0 1 0.223656 1 0 1 0.626393 1 
0.00391007 1 0.0688172 1 0.0469208 1 0.742131 1 0.171261 
1 0 1 0.625611 1 0.202542 1 0.22913 1 
0 1 0.59042 1 0 1 0 1 0.236168 
1 0.378495 1 0.728055 1 0.739003 1 0.713978 1 
0.200196 1 0 1 0.602151 1 0 1 0 
1 0 1 0 1 0.54741 1 0.374585 1 
0 1 0 1 0.379277 1 0.166569 1 0.405083 
1 0.718671 1 0.668622 1 0 1 0 1 
0.767155 1 0 1 0 1 0 1 0.778886 
1 0 1 0.735093 1 0.118866 1 0.210362 1 
0.317498 1 0 1 0.617009 1 0 1 0 
1 0 1 0.617009 1 0 1 0 1 
0.620919 1 0 1 0 1 0.363636 1 0 
1 0 1 0 1 0.334702 1 0.509091 1 
0 1 0 1 0.517693 1 0.593548 1 0 
1 0.66393 1 0 1 0.2174 1 0.624047 1 
0 1 0.143891 1 0.0954057 1 0 1 0.630303 
1 0 1 0 1 0.793744 1 0.0617791 1 
0 1 0.340176 1 0 1 0 1 0 
1 0 1 0.673314 1 0.506745 1 0.756207 1 
0 1 0.344086 1 0 1 0.756989 1 0 
1 0.638905 1 0.301857 1 0.197067 1 0.663148 1 
0.0328446 1 0.182991 1 0 1 0 1 0.0750733 
1 0 1 0.689736 1 0 1 0.0344086 1 
0 1 0.764027 1 0.66002 1 0 1 0.69521 
1 0.409775 1 0 1 0 1 0.600587 1 
0.799218 1 0 1 0.33392 1 0.168915 1 0 
1 0 1 0.322972 1 0 1 0 1 
0.0868035 1 0.289345 1 0.0774194 1 0 1 0 
1 0 1 0.162659 1 0.309677 1 0.659238 1 
0.719453 1 0 1 0.773412 1 0 1 0.653763 
1 0.333138 1 0 1 0.654545 1 0.580254 1 
0 1 0.366764 1 0.332356 1 0.4739 1 0 
1 0.482502 1 0 1 0 1 0.534115 1 
0 1 0.790616 1 0 1 0 1 0 
1 0.591202 1 0 1 0 1 0 1 
0 1 0.00312805 1 0.500489 1 0.104008 1 0.717107 
1 0 1 0.542718 1 0 1 0 1 
0.262757 1 0.189247 1 0 1 0.36129 1 0 
1 0 1 0.545064 1 0.207234 1 0 1 
0 1 0 1 0.11652 1 0.56305 1 0.479374 
1 0.552884 1 0 1 0 1 0.058651 1 
0 1 0 1 0.703812 1 0.161877 1 0 
1 0 1 0.172825 1 0.58651 1 0 1 
0.628739 1 0 1 0.767155 1 0.572434 1 0.592766 
1 0.155621 1 0.172043 1 0 1 0.0156403 1 
0.67175 1 0 1 0.609189 1 0.174389 1 0 
1 0 1 0 1 0.336266 1 0 1 
0.216618 1 0 1 0 1 0 1 0 
1 0 1 0 1 0.541936 1 0 1 
0.668622 1 0.0398827 1 0.498143 1 0 1 0.506745 
1 0 1 0.365982 1 0 1 0 1 
0.0875855 1 0.580254 1 0.0132942 1 0.33001 1 0.43089 
1 0.0813294 1 0.512219 1 0 1 0 1 
0.348778 1 0 1 0 1 0 1 0 