# vtk DataFile Version 3.0
vtk output
ASCII
DATASET STRUCTURED_POINTS
DIMENSIONS 129 129 1
SPACING 1 1 1
ORIGIN 0 0 0
CELL_DATA 16384
FIELD FieldData 1
tex 2 16384 float
0.532747 1 0.532747 1 0 1 0 1 0 
1 0 1 0 1 0 1 0 1 
0 1 0.367546 1 0.367546 1 0.599218 1 0.599218 
1 0.629521 1 0.629521 1 0 1 0 1 
0 1 0 1 0.461388 1 0.461388 1 0 
1 0 1 0 1 0 1 0 1 
0 1 0.404692 1 0.404692 1 0 1 0 
1 0 1 0 1 0 1 0 1 
0 1 0 1 0.456501 1 0.456501 1 0.632454 
1 0.632454 1 0.246334 1 0.246334 1 0.504399 1 
0.504399 1 0 1 0 1 0 1 0 
1 0.285435 1 0.285435 1 0 1 0 1 
0.616813 1 0.616813 1 0.608993 1 0.608993 1 0.473118 
1 0.473118 1 0 1 0 1 0 1 
0 1 0.591398 1 0.591398 1 0 1 0 
1 0.344086 1 0.344086 1 0.402737 1 0.402737 1 
0.509286 1 0.509286 1 0 1 0 1 0 
1 0 1 0.410557 1 0.410557 1 0.557185 1 
0.557185 1 0.660802 1 0.660802 1 0.276637 1 0.276637 
1 0 1 0 1 0.597263 1 0.597263 1 
0.83871 1 0.83871 1 0 1 0 1 0 
1 0 1 0.453568 1 0.453568 1 0 1 
0 1 0 1 0 1 0 1 0 
1 0 1 0 1 0 1 0 1 
0 1 0 1 0.379277 1 0.379277 1 0.536657 
1 0.536657 1 0 1 0 1 0.734115 1 
0.734115 1 0 1 0 1 0 1 0 
1 0 1 0 1 0.503421 1 0.503421 1 
0 1 0 1 0.532747 1 0.532747 1 0 
1 0 1 0 1 0 1 0 1 
0 1 0 1 0 1 0.367546 1 0.367546 
1 0.599218 1 0.599218 1 0.629521 1 0.629521 1 
0 1 0 1 0 1 0 1 0.461388 
1 0.461388 1 0 1 0 1 0 1 
0 1 0 1 0 1 0.404692 1 0.404692 
1 0 1 0 1 0 1 0 1 
0 1 0 1 0 1 0 1 0.456501 
1 0.456501 1 0.632454 1 0.632454 1 0.246334 1 
0.246334 1 0.504399 1 0.504399 1 0 1 0 
1 0 1 0 1 0.285435 1 0.285435 1 
0 1 0 1 0.616813 1 0.616813 1 0.608993 
1 0.608993 1 0.473118 1 0.473118 1 0 1 
0 1 0 1 0 1 0.591398 1 0.591398 
1 0 1 0 1 0.344086 1 0.344086 1 
0.402737 1 0.402737 1 0.509286 1 0.509286 1 0 
1 0 1 0 1 0 1 0.410557 1 
0.410557 1 0.557185 1 0.557185 1 0.660802 1 0.660802 
1 0.276637 1 0.276637 1 0 1 0 1 
0.597263 1 0.597263 1 0.83871 1 0.83871 1 0 
1 0 1 0 1 0 1 0.453568 1 
0.453568 1 0 1 0 1 0 1 0 
1 0 1 0 1 0 1 0 1 
0 1 0 1 0 1 0 1 0.379277 
1 0.379277 1 0.536657 1 0.536657 1 0 1 
0 1 0.734115 1 0.734115 1 0 1 0 
1 0 1 0 1 0 1 0 1 
0.503421 1 0.503421 1 0 1 0 1 0 
1 0 1 0 1 0 1 0.533724 1 
0.533724 1 0 1 0 1 0 1 0 
1 0 1 0 1 0 1 0 1 
0.569892 1 0.569892 1 0 1 0 1 0 
1 0 1 0.465298 1 0.465298 1 0 1 
0 1 0.503421 1 0.503421 1 0.443793 1 0.443793 
1 0.592375 1 0.592375 1 0 1 0 1 
0 1 0 1 0.414467 1 0.414467 1 0.524927 
1 0.524927 1 0.482893 1 0.482893 1 0.553275 1 
0.553275 1 0.27175 1 0.27175 1 0.564027 1 0.564027 
1 0.483871 1 0.483871 1 0 1 0 1 
0 1 0 1 0 1 0 1 0 
1 0 1 0.674487 1 0.674487 1 0.628543 1 
0.628543 1 0 1 0 1 0.323558 1 0.323558 
1 0 1 0 1 0 1 0 1 
0 1 0 1 0 1 0 1 0 
1 0 1 0 1 0 1 0 1 
0 1 0.420332 1 0.420332 1 0.42131 1 0.42131 
1 0 1 0 1 0 1 0 1 
0 1 0 1 0.488759 1 0.488759 1 0.447703 
1 0.447703 1 0.469208 1 0.469208 1 0.475073 1 
0.475073 1 0.622678 1 0.622678 1 0.356794 1 0.356794 
1 0 1 0 1 0 1 0 1 
0.455523 1 0.455523 1 0 1 0 1 0 
1 0 1 0 1 0 1 0 1 
0 1 0 1 0 1 0 1 0 
1 0.611926 1 0.611926 1 0.441838 1 0.441838 1 
0 1 0 1 0 1 0 1 0 
1 0 1 0 1 0 1 0 1 
0 1 0.533724 1 0.533724 1 0 1 0 
1 0 1 0 1 0 1 0 1 
0 1 0 1 0.569892 1 0.569892 1 0 
1 0 1 0 1 0 1 0.465298 1 
0.465298 1 0 1 0 1 0.503421 1 0.503421 
1 0.443793 1 0.443793 1 0.592375 1 0.592375 1 
0 1 0 1 0 1 0 1 0.414467 
1 0.414467 1 0.524927 1 0.524927 1 0.482893 1 
0.482893 1 0.553275 1 0.553275 1 0.27175 1 0.27175 
1 0.564027 1 0.564027 1 0.483871 1 0.483871 1 
0 1 0 1 0 1 0 1 0 
1 0 1 0 1 0 1 0.674487 1 
0.674487 1 0.628543 1 0.628543 1 0 1 0 
1 0.323558 1 0.323558 1 0 1 0 1 
0 1 0 1 0 1 0 1 0 
1 0 1 0 1 0 1 0 1 
0 1 0 1 0 1 0.420332 1 0.420332 
1 0.42131 1 0.42131 1 0 1 0 1 
0 1 0 1 0 1 0 1 0.488759 
1 0.488759 1 0.447703 1 0.447703 1 0.469208 1 
0.469208 1 0.475073 1 0.475073 1 0.622678 1 0.622678 
1 0.356794 1 0.356794 1 0 1 0 1 
0 1 0 1 0.455523 1 0.455523 1 0 
1 0 1 0 1 0 1 0 1 
0 1 0 1 0 1 0 1 0 
1 0 1 0 1 0.611926 1 0.611926 1 
0.441838 1 0.441838 1 0 1 0 1 0 
1 0 1 0 1 0 1 0.516129 1 
0.516129 1 0.641251 1 0.641251 1 0 1 0 
1 0.42913 1 0.42913 1 0 1 0 1 
0 1 0 1 0 1 0 1 0 
1 0 1 0.478983 1 0.478983 1 0.4174 1 
0.4174 1 0.576735 1 0.576735 1 0.640274 1 0.640274 
1 0.352884 1 0.352884 1 0 1 0 1 
0.699902 1 0.699902 1 0 1 0 1 0 
1 0 1 0.661779 1 0.661779 1 0 1 
0 1 0 1 0 1 0 1 0 
1 0.470186 1 0.470186 1 0 1 0 1 
0 1 0 1 0 1 0 1 0.378299 
1 0.378299 1 0 1 0 1 0.471163 1 
0.471163 1 0.293255 1 0.293255 1 0.497556 1 0.497556 
1 0 1 0 1 0 1 0 1 
0 1 0 1 0 1 0 1 0 
1 0 1 0.445748 1 0.445748 1 0 1 
0 1 0 1 0 1 0.423265 1 0.423265 
1 0 1 0 1 0 1 0 1 
0.506354 1 0.506354 1 0 1 0 1 0 
1 0 1 0 1 0 1 0 1 
0 1 0 1 0 1 0 1 0 
1 0.434018 1 0.434018 1 0 1 0 1 
0 1 0 1 0 1 0 1 0.404692 
1 0.404692 1 0.450635 1 0.450635 1 0.648094 1 
0.648094 1 0 1 0 1 0.320626 1 0.320626 
1 0.335288 1 0.335288 1 0 1 0 1 
0.473118 1 0.473118 1 0 1 0 1 0 
1 0 1 0.706745 1 0.706745 1 0.367546 1 
0.367546 1 0.516129 1 0.516129 1 0.641251 1 0.641251 
1 0 1 0 1 0.42913 1 0.42913 1 
0 1 0 1 0 1 0 1 0 
1 0 1 0 1 0 1 0.478983 1 
0.478983 1 0.4174 1 0.4174 1 0.576735 1 0.576735 
1 0.640274 1 0.640274 1 0.352884 1 0.352884 1 
0 1 0 1 0.699902 1 0.699902 1 0 
1 0 1 0 1 0 1 0.661779 1 
0.661779 1 0 1 0 1 0 1 0 
1 0 1 0 1 0.470186 1 0.470186 1 
0 1 0 1 0 1 0 1 0 
1 0 1 0.378299 1 0.378299 1 0 1 
0 1 0.471163 1 0.471163 1 0.293255 1 0.293255 
1 0.497556 1 0.497556 1 0 1 0 1 
0 1 0 1 0 1 0 1 0 
1 0 1 0 1 0 1 0.445748 1 
0.445748 1 0 1 0 1 0 1 0 
1 0.423265 1 0.423265 1 0 1 0 1 
0 1 0 1 0.506354 1 0.506354 1 0 
1 0 1 0 1 0 1 0 1 
0 1 0 1 0 1 0 1 0 
1 0 1 0 1 0.434018 1 0.434018 1 
0 1 0 1 0 1 0 1 0 
1 0 1 0.404692 1 0.404692 1 0.450635 1 
0.450635 1 0.648094 1 0.648094 1 0 1 0 
1 0.320626 1 0.320626 1 0.335288 1 0.335288 1 
0 1 0 1 0.473118 1 0.473118 1 0 
1 0 1 0 1 0 1 0.706745 1 
0.706745 1 0.367546 1 0.367546 1 0.487781 1 0.487781 
1 0 1 0 1 0.495601 1 0.495601 1 
0.540567 1 0.540567 1 0 1 0 1 0.457478 
1 0.457478 1 0.597263 1 0.597263 1 0.636364 1 
0.636364 1 0.740958 1 0.740958 1 0.290323 1 0.290323 
1 0.388074 1 0.388074 1 0 1 0 1 
0 1 0 1 0 1 0 1 0 
1 0 1 0 1 0 1 0.620723 1 
0.620723 1 0.666667 1 0.666667 1 0 1 0 
1 0.408602 1 0.408602 1 0.544477 1 0.544477 1 
0.459433 1 0.459433 1 0.641251 1 0.641251 1 0.326491 
1 0.326491 1 0.620723 1 0.620723 1 0 1 
0 1 0.375367 1 0.375367 1 0 1 0 
1 0 1 0 1 0 1 0 1 
0.733138 1 0.733138 1 0 1 0 1 0.516129 
1 0.516129 1 0.365591 1 0.365591 1 0 1 
0 1 0.412512 1 0.412512 1 0.434018 1 0.434018 
1 0.609971 1 0.609971 1 0 1 0 1 
0 1 0 1 0 1 0 1 0.391007 
1 0.391007 1 0 1 0 1 0 1 
0 1 0 1 0 1 0 1 0 
1 0.422287 1 0.422287 1 0 1 0 1 
0 1 0 1 0.428153 1 0.428153 1 0 
1 0 1 0 1 0 1 0.246334 1 
0.246334 1 0 1 0 1 0.504399 1 0.504399 
1 0.610948 1 0.610948 1 0 1 0 1 
0 1 0 1 0.554252 1 0.554252 1 0.629521 
1 0.629521 1 0 1 0 1 0 1 
0 1 0.481916 1 0.481916 1 0.42131 1 0.42131 
1 0.487781 1 0.487781 1 0 1 0 1 
0.495601 1 0.495601 1 0.540567 1 0.540567 1 0 
1 0 1 0.457478 1 0.457478 1 0.597263 1 
0.597263 1 0.636364 1 0.636364 1 0.740958 1 0.740958 
1 0.290323 1 0.290323 1 0.388074 1 0.388074 1 
0 1 0 1 0 1 0 1 0 
1 0 1 0 1 0 1 0 1 
0 1 0.620723 1 0.620723 1 0.666667 1 0.666667 
1 0 1 0 1 0.408602 1 0.408602 1 
0.544477 1 0.544477 1 0.459433 1 0.459433 1 0.641251 
1 0.641251 1 0.326491 1 0.326491 1 0.620723 1 
0.620723 1 0 1 0 1 0.375367 1 0.375367 
1 0 1 0 1 0 1 0 1 
0 1 0 1 0.733138 1 0.733138 1 0 
1 0 1 0.516129 1 0.516129 1 0.365591 1 
0.365591 1 0 1 0 1 0.412512 1 0.412512 
1 0.434018 1 0.434018 1 0.609971 1 0.609971 1 
0 1 0 1 0 1 0 1 0 
1 0 1 0.391007 1 0.391007 1 0 1 
0 1 0 1 0 1 0 1 0 
1 0 1 0 1 0.422287 1 0.422287 1 
0 1 0 1 0 1 0 1 0.428153 
1 0.428153 1 0 1 0 1 0 1 
0 1 0.246334 1 0.246334 1 0 1 0 
1 0.504399 1 0.504399 1 0.610948 1 0.610948 1 
0 1 0 1 0 1 0 1 0.554252 
1 0.554252 1 0.629521 1 0.629521 1 0 1 
0 1 0 1 0 1 0.481916 1 0.481916 
1 0.42131 1 0.42131 1 0 1 0 1 
0.410557 1 0.410557 1 0.86217 1 0.86217 1 0.613881 
1 0.613881 1 0 1 0 1 0 1 
0 1 0.294233 1 0.294233 1 0.396872 1 0.396872 
1 0 1 0 1 0 1 0 1 
0 1 0 1 0 1 0 1 0.57087 
1 0.57087 1 0.663734 1 0.663734 1 0 1 
0 1 0 1 0 1 0.461388 1 0.461388 
1 0 1 0 1 0.632454 1 0.632454 1 
0.738025 1 0.738025 1 0 1 0 1 0 
1 0 1 0 1 0 1 0 1 
0 1 0 1 0 1 0.742913 1 0.742913 
1 0 1 0 1 0.298143 1 0.298143 1 
0 1 0 1 0 1 0 1 0.473118 
1 0.473118 1 0 1 0 1 0.464321 1 
0.464321 1 0 1 0 1 0.530792 1 0.530792 
1 0 1 0 1 0 1 0 1 
0 1 0 1 0 1 0 1 0.471163 
1 0.471163 1 0.289345 1 0.289345 1 0.400782 1 
0.400782 1 0.699902 1 0.699902 1 0.459433 1 0.459433 
1 0.641251 1 0.641251 1 0.494624 1 0.494624 1 
0 1 0 1 0.516129 1 0.516129 1 0 
1 0 1 0 1 0 1 0.171065 1 
0.171065 1 0 1 0 1 0.391984 1 0.391984 
1 0 1 0 1 0.447703 1 0.447703 1 
0.56305 1 0.56305 1 0 1 0 1 0.686217 
1 0.686217 1 0 1 0 1 0 1 
0 1 0 1 0 1 0.527859 1 0.527859 
1 0.485826 1 0.485826 1 0.420332 1 0.420332 1 
0 1 0 1 0.410557 1 0.410557 1 0.86217 
1 0.86217 1 0.613881 1 0.613881 1 0 1 
0 1 0 1 0 1 0.294233 1 0.294233 
1 0.396872 1 0.396872 1 0 1 0 1 
0 1 0 1 0 1 0 1 0 
1 0 1 0.57087 1 0.57087 1 0.663734 1 
0.663734 1 0 1 0 1 0 1 0 
1 0.461388 1 0.461388 1 0 1 0 1 
0.632454 1 0.632454 1 0.738025 1 0.738025 1 0 
1 0 1 0 1 0 1 0 1 
0 1 0 1 0 1 0 1 0 
1 0.742913 1 0.742913 1 0 1 0 1 
0.298143 1 0.298143 1 0 1 0 1 0 
1 0 1 0.473118 1 0.473118 1 0 1 
0 1 0.464321 1 0.464321 1 0 1 0 
1 0.530792 1 0.530792 1 0 1 0 1 
0 1 0 1 0 1 0 1 0 
1 0 1 0.471163 1 0.471163 1 0.289345 1 
0.289345 1 0.400782 1 0.400782 1 0.699902 1 0.699902 
1 0.459433 1 0.459433 1 0.641251 1 0.641251 1 
0.494624 1 0.494624 1 0 1 0 1 0.516129 
1 0.516129 1 0 1 0 1 0 1 
0 1 0.171065 1 0.171065 1 0 1 0 
1 0.391984 1 0.391984 1 0 1 0 1 
0.447703 1 0.447703 1 0.56305 1 0.56305 1 0 
1 0 1 0.686217 1 0.686217 1 0 1 
0 1 0 1 0 1 0 1 0 
1 0.527859 1 0.527859 1 0.485826 1 0.485826 1 
0.420332 1 0.420332 1 0.485826 1 0.485826 1 0 
1 0 1 0 1 0 1 0 1 
0 1 0 1 0 1 0.372434 1 0.372434 
1 0 1 0 1 0 1 0 1 
0 1 0 1 0 1 0 1 0 
1 0 1 0 1 0 1 0 1 
0 1 0 1 0 1 0 1 0 
1 0 1 0 1 0 1 0 1 
0 1 0 1 0.339198 1 0.339198 1 0.449658 
1 0.449658 1 0 1 0 1 0.304008 1 
0.304008 1 0.552297 1 0.552297 1 0.428153 1 0.428153 
1 0 1 0 1 0.591398 1 0.591398 1 
0 1 0 1 0 1 0 1 0 
1 0 1 0.516129 1 0.516129 1 0 1 
0 1 0.284457 1 0.284457 1 0.468231 1 0.468231 
1 0 1 0 1 0.347996 1 0.347996 1 
0 1 0 1 0 1 0 1 0 
1 0 1 0.521017 1 0.521017 1 0 1 
0 1 0 1 0 1 0.184751 1 0.184751 
1 0 1 0 1 0.290323 1 0.290323 1 
0 1 0 1 0.515152 1 0.515152 1 0 
1 0 1 0.175953 1 0.175953 1 0.285435 1 
0.285435 1 0 1 0 1 0.372434 1 0.372434 
1 0 1 0 1 0 1 0 1 
0.361681 1 0.361681 1 0.610948 1 0.610948 1 0 
1 0 1 0.42913 1 0.42913 1 0.529814 1 
0.529814 1 0.640274 1 0.640274 1 0.482893 1 0.482893 
1 0 1 0 1 0.442815 1 0.442815 1 
0 1 0 1 0 1 0 1 0.485826 
1 0.485826 1 0 1 0 1 0 1 
0 1 0 1 0 1 0 1 0 
1 0.372434 1 0.372434 1 0 1 0 1 
0 1 0 1 0 1 0 1 0 
1 0 1 0 1 0 1 0 1 
0 1 0 1 0 1 0 1 0 
1 0 1 0 1 0 1 0 1 
0 1 0 1 0 1 0 1 0.339198 
1 0.339198 1 0.449658 1 0.449658 1 0 1 
0 1 0.304008 1 0.304008 1 0.552297 1 0.552297 
1 0.428153 1 0.428153 1 0 1 0 1 
0.591398 1 0.591398 1 0 1 0 1 0 
1 0 1 0 1 0 1 0.516129 1 
0.516129 1 0 1 0 1 0.284457 1 0.284457 
1 0.468231 1 0.468231 1 0 1 0 1 
0.347996 1 0.347996 1 0 1 0 1 0 
1 0 1 0 1 0 1 0.521017 1 
0.521017 1 0 1 0 1 0 1 0 
1 0.184751 1 0.184751 1 0 1 0 1 
0.290323 1 0.290323 1 0 1 0 1 0.515152 
1 0.515152 1 0 1 0 1 0.175953 1 
0.175953 1 0.285435 1 0.285435 1 0 1 0 
1 0.372434 1 0.372434 1 0 1 0 1 
0 1 0 1 0.361681 1 0.361681 1 0.610948 
1 0.610948 1 0 1 0 1 0.42913 1 
0.42913 1 0.529814 1 0.529814 1 0.640274 1 0.640274 
1 0.482893 1 0.482893 1 0 1 0 1 
0.442815 1 0.442815 1 0 1 0 1 0 
1 0 1 0 1 0 1 0 1 
0 1 0 1 0 1 0.443793 1 0.443793 
1 0.380254 1 0.380254 1 0.368524 1 0.368524 1 
0 1 0 1 0 1 0 1 0.42913 
1 0.42913 1 0 1 0 1 0 1 
0 1 0 1 0 1 0 1 0 
1 0 1 0 1 0 1 0 1 
0.468231 1 0.468231 1 0.386119 1 0.386119 1 0.298143 
1 0.298143 1 0 1 0 1 0 1 
0 1 0.362659 1 0.362659 1 0 1 0 
1 0.518084 1 0.518084 1 0 1 0 1 
0 1 0 1 0 1 0 1 0 
1 0 1 0.347019 1 0.347019 1 0 1 
0 1 0 1 0 1 0 1 0 
1 0 1 0 1 0.479961 1 0.479961 1 
0 1 0 1 0 1 0 1 0 
1 0 1 0 1 0 1 0 1 
0 1 0 1 0 1 0 1 0 
1 0 1 0 1 0.710655 1 0.710655 1 
0.531769 1 0.531769 1 0.503421 1 0.503421 1 0.328446 
1 0.328446 1 0 1 0 1 0 1 
0 1 0.537634 1 0.537634 1 0 1 0 
1 0 1 0 1 0.523949 1 0.523949 1 
0 1 0 1 0 1 0 1 0 
1 0 1 0.540567 1 0.540567 1 0.495601 1 
0.495601 1 0.428153 1 0.428153 1 0 1 0 
1 0 1 0 1 0 1 0 1 
0.495601 1 0.495601 1 0 1 0 1 0 
1 0 1 0.476051 1 0.476051 1 0 1 
0 1 0 1 0 1 0 1 0 
1 0.443793 1 0.443793 1 0.380254 1 0.380254 1 
0.368524 1 0.368524 1 0 1 0 1 0 
1 0 1 0.42913 1 0.42913 1 0 1 
0 1 0 1 0 1 0 1 0 
1 0 1 0 1 0 1 0 1 
0 1 0 1 0.468231 1 0.468231 1 0.386119 
1 0.386119 1 0.298143 1 0.298143 1 0 1 
0 1 0 1 0 1 0.362659 1 0.362659 
1 0 1 0 1 0.518084 1 0.518084 1 
0 1 0 1 0 1 0 1 0 
1 0 1 0 1 0 1 0.347019 1 
0.347019 1 0 1 0 1 0 1 0 
1 0 1 0 1 0 1 0 1 
0.479961 1 0.479961 1 0 1 0 1 0 
1 0 1 0 1 0 1 0 1 
0 1 0 1 0 1 0 1 0 
1 0 1 0 1 0 1 0 1 
0.710655 1 0.710655 1 0.531769 1 0.531769 1 0.503421 
1 0.503421 1 0.328446 1 0.328446 1 0 1 
0 1 0 1 0 1 0.537634 1 0.537634 
1 0 1 0 1 0 1 0 1 
0.523949 1 0.523949 1 0 1 0 1 0 
1 0 1 0 1 0 1 0.540567 1 
0.540567 1 0.495601 1 0.495601 1 0.428153 1 0.428153 
1 0 1 0 1 0 1 0 1 
0 1 0 1 0.495601 1 0.495601 1 0 
1 0 1 0 1 0 1 0.476051 1 
0.476051 1 0.461388 1 0.461388 1 0 1 0 
1 0.495601 1 0.495601 1 0.538612 1 0.538612 1 
0 1 0 1 0.335288 1 0.335288 1 0.521017 
1 0.521017 1 0 1 0 1 0 1 
0 1 0 1 0 1 0.659824 1 0.659824 
1 0.478983 1 0.478983 1 0 1 0 1 
0.494624 1 0.494624 1 0.374389 1 0.374389 1 0 
1 0 1 0 1 0 1 0.663734 1 
0.663734 1 0 1 0 1 0 1 0 
1 0 1 0 1 0 1 0 1 
0 1 0 1 0 1 0 1 0.780059 
1 0.780059 1 0 1 0 1 0 1 
0 1 0.379277 1 0.379277 1 0 1 0 
1 0.778104 1 0.778104 1 0 1 0 1 
0.197458 1 0.197458 1 0 1 0 1 0 
1 0 1 0 1 0 1 0.609971 1 
0.609971 1 0.323558 1 0.323558 1 0 1 0 
1 0 1 0 1 0.55132 1 0.55132 1 
0 1 0 1 0.402737 1 0.402737 1 0.557185 
1 0.557185 1 0.464321 1 0.464321 1 0.259042 1 
0.259042 1 0 1 0 1 0 1 0 
1 0 1 0 1 0.337243 1 0.337243 1 
0.435973 1 0.435973 1 0.449658 1 0.449658 1 0 
1 0 1 0 1 0 1 0 1 
0 1 0.58651 1 0.58651 1 0 1 0 
1 0.482893 1 0.482893 1 0 1 0 1 
0 1 0 1 0.587488 1 0.587488 1 0 
1 0 1 0.604106 1 0.604106 1 0 1 
0 1 0.454545 1 0.454545 1 0.461388 1 0.461388 
1 0 1 0 1 0.495601 1 0.495601 1 
0.538612 1 0.538612 1 0 1 0 1 0.335288 
1 0.335288 1 0.521017 1 0.521017 1 0 1 
0 1 0 1 0 1 0 1 0 
1 0.659824 1 0.659824 1 0.478983 1 0.478983 1 
0 1 0 1 0.494624 1 0.494624 1 0.374389 
1 0.374389 1 0 1 0 1 0 1 
0 1 0.663734 1 0.663734 1 0 1 0 
1 0 1 0 1 0 1 0 1 
0 1 0 1 0 1 0 1 0 
1 0 1 0.780059 1 0.780059 1 0 1 
0 1 0 1 0 1 0.379277 1 0.379277 
1 0 1 0 1 0.778104 1 0.778104 1 
0 1 0 1 0.197458 1 0.197458 1 0 
1 0 1 0 1 0 1 0 1 
0 1 0.609971 1 0.609971 1 0.323558 1 0.323558 
1 0 1 0 1 0 1 0 1 
0.55132 1 0.55132 1 0 1 0 1 0.402737 
1 0.402737 1 0.557185 1 0.557185 1 0.464321 1 
0.464321 1 0.259042 1 0.259042 1 0 1 0 
1 0 1 0 1 0 1 0 1 
0.337243 1 0.337243 1 0.435973 1 0.435973 1 0.449658 
1 0.449658 1 0 1 0 1 0 1 
0 1 0 1 0 1 0.58651 1 0.58651 
1 0 1 0 1 0.482893 1 0.482893 1 
0 1 0 1 0 1 0 1 0.587488 
1 0.587488 1 0 1 0 1 0.604106 1 
0.604106 1 0 1 0 1 0.454545 1 0.454545 
1 0.339198 1 0.339198 1 0 1 0 1 
0.246334 1 0.246334 1 0.226784 1 0.226784 1 0 
1 0 1 0 1 0 1 0 1 
0 1 0 1 0 1 0.544477 1 0.544477 
1 0 1 0 1 0 1 0 1 
0.435973 1 0.435973 1 0 1 0 1 0 
1 0 1 0 1 0 1 0.457478 1 
0.457478 1 0 1 0 1 0 1 0 
1 0 1 0 1 0.248289 1 0.248289 1 
0.56696 1 0.56696 1 0 1 0 1 0 
1 0 1 0 1 0 1 0 1 
0 1 0 1 0 1 0 1 0 
1 0 1 0 1 0.366569 1 0.366569 1 
0 1 0 1 0 1 0 1 0 
1 0 1 0.499511 1 0.499511 1 0.705767 1 
0.705767 1 0.633431 1 0.633431 1 0.237537 1 0.237537 
1 0.314761 1 0.314761 1 0.485826 1 0.485826 1 
0 1 0 1 0.589443 1 0.589443 1 0.531769 
1 0.531769 1 0 1 0 1 0 1 
0 1 0 1 0 1 0 1 0 
1 0 1 0 1 0 1 0 1 
0 1 0 1 0 1 0 1 0 
1 0 1 0 1 0 1 0 1 
0 1 0.795699 1 0.795699 1 0 1 0 
1 0.445748 1 0.445748 1 0.191593 1 0.191593 1 
0 1 0 1 0.333333 1 0.333333 1 0 
1 0 1 0 1 0 1 0 1 
0 1 0 1 0 1 0 1 0 
1 0.565982 1 0.565982 1 0.339198 1 0.339198 1 
0 1 0 1 0.246334 1 0.246334 1 0.226784 
1 0.226784 1 0 1 0 1 0 1 
0 1 0 1 0 1 0 1 0 
1 0.544477 1 0.544477 1 0 1 0 1 
0 1 0 1 0.435973 1 0.435973 1 0 
1 0 1 0 1 0 1 0 1 
0 1 0.457478 1 0.457478 1 0 1 0 
1 0 1 0 1 0 1 0 1 
0.248289 1 0.248289 1 0.56696 1 0.56696 1 0 
1 0 1 0 1 0 1 0 1 
0 1 0 1 0 1 0 1 0 
1 0 1 0 1 0 1 0 1 
0.366569 1 0.366569 1 0 1 0 1 0 
1 0 1 0 1 0 1 0.499511 1 
0.499511 1 0.705767 1 0.705767 1 0.633431 1 0.633431 
1 0.237537 1 0.237537 1 0.314761 1 0.314761 1 
0.485826 1 0.485826 1 0 1 0 1 0.589443 
1 0.589443 1 0.531769 1 0.531769 1 0 1 
0 1 0 1 0 1 0 1 0 
1 0 1 0 1 0 1 0 1 
0 1 0 1 0 1 0 1 0 
1 0 1 0 1 0 1 0 1 
0 1 0 1 0 1 0.795699 1 0.795699 
1 0 1 0 1 0.445748 1 0.445748 1 
0.191593 1 0.191593 1 0 1 0 1 0.333333 
1 0.333333 1 0 1 0 1 0 1 
0 1 0 1 0 1 0 1 0 
1 0 1 0 1 0.565982 1 0.565982 1 
0 1 0 1 0 1 0 1 0 
1 0 1 0.56696 1 0.56696 1 0 1 
0 1 0 1 0 1 0.217986 1 0.217986 
1 0 1 0 1 0.272727 1 0.272727 1 
0.363636 1 0.363636 1 0 1 0 1 0.820137 
1 0.820137 1 0 1 0 1 0 1 
0 1 0 1 0 1 0 1 0 
1 0.419355 1 0.419355 1 0.0694037 1 0.0694037 1 
0.630499 1 0.630499 1 0 1 0 1 0.584555 
1 0.584555 1 0.715542 1 0.715542 1 0 1 
0 1 0 1 0 1 0 1 0 
1 0.737048 1 0.737048 1 0 1 0 1 
0 1 0 1 0.253177 1 0.253177 1 0 
1 0 1 0 1 0 1 0 1 
0 1 0.69697 1 0.69697 1 0.541544 1 0.541544 
1 0 1 0 1 0 1 0 1 
0.532747 1 0.532747 1 0 1 0 1 0 
1 0 1 0 1 0 1 0 1 
0 1 0 1 0 1 0.375367 1 0.375367 
1 0.458456 1 0.458456 1 0 1 0 1 
0 1 0 1 0 1 0 1 0 
1 0 1 0.541544 1 0.541544 1 0.513196 1 
0.513196 1 0.464321 1 0.464321 1 0 1 0 
1 0 1 0 1 0 1 0 1 
0 1 0 1 0 1 0 1 0.558162 
1 0.558162 1 0.719453 1 0.719453 1 0.370479 1 
0.370479 1 0.606061 1 0.606061 1 0 1 0 
1 0 1 0 1 0.747801 1 0.747801 1 
0.360704 1 0.360704 1 0 1 0 1 0 
1 0 1 0 1 0 1 0.56696 1 
0.56696 1 0 1 0 1 0 1 0 
1 0.217986 1 0.217986 1 0 1 0 1 
0.272727 1 0.272727 1 0.363636 1 0.363636 1 0 
1 0 1 0.820137 1 0.820137 1 0 1 
0 1 0 1 0 1 0 1 0 
1 0 1 0 1 0.419355 1 0.419355 1 
0.0694037 1 0.0694037 1 0.630499 1 0.630499 1 0 
1 0 1 0.584555 1 0.584555 1 0.715542 1 
0.715542 1 0 1 0 1 0 1 0 
1 0 1 0 1 0.737048 1 0.737048 1 
0 1 0 1 0 1 0 1 0.253177 
1 0.253177 1 0 1 0 1 0 1 
0 1 0 1 0 1 0.69697 1 0.69697 
1 0.541544 1 0.541544 1 0 1 0 1 
0 1 0 1 0.532747 1 0.532747 1 0 
1 0 1 0 1 0 1 0 1 
0 1 0 1 0 1 0 1 0 
1 0.375367 1 0.375367 1 0.458456 1 0.458456 1 
0 1 0 1 0 1 0 1 0 
1 0 1 0 1 0 1 0.541544 1 
0.541544 1 0.513196 1 0.513196 1 0.464321 1 0.464321 
1 0 1 0 1 0 1 0 1 
0 1 0 1 0 1 0 1 0 
1 0 1 0.558162 1 0.558162 1 0.719453 1 
0.719453 1 0.370479 1 0.370479 1 0.606061 1 0.606061 
1 0 1 0 1 0 1 0 1 
0.747801 1 0.747801 1 0.360704 1 0.360704 1 0 
1 0 1 0.788856 1 0.788856 1 0.482893 1 
0.482893 1 1 1 1 1 0 1 0 
1 0.489736 1 0.489736 1 0 1 0 1 
0.648094 1 0.648094 1 0.545455 1 0.545455 1 0 
1 0 1 0 1 0 1 0 1 
0 1 0 1 0 1 0 1 0 
1 0 1 0 1 0 1 0 1 
0.363636 1 0.363636 1 0.490714 1 0.490714 1 0 
1 0 1 0.504399 1 0.504399 1 0.672532 1 
0.672532 1 0.419355 1 0.419355 1 0 1 0 
1 0 1 0 1 0.458456 1 0.458456 1 
0 1 0 1 0 1 0 1 0 
1 0 1 0.496579 1 0.496579 1 0 1 
0 1 0 1 0 1 0.896383 1 0.896383 
1 0 1 0 1 0 1 0 1 
0.28348 1 0.28348 1 0.243402 1 0.243402 1 0.274682 
1 0.274682 1 0 1 0 1 0.639296 1 
0.639296 1 0.390029 1 0.390029 1 0.207234 1 0.207234 
1 0 1 0 1 0 1 0 1 
0.625611 1 0.625611 1 0.463343 1 0.463343 1 0.686217 
1 0.686217 1 0.549365 1 0.549365 1 0 1 
0 1 0 1 0 1 0 1 0 
1 0.609971 1 0.609971 1 0.43695 1 0.43695 1 
0 1 0 1 0 1 0 1 0.318671 
1 0.318671 1 0.790811 1 0.790811 1 0 1 
0 1 0 1 0 1 0.539589 1 0.539589 
1 0.661779 1 0.661779 1 0 1 0 1 
0.616813 1 0.616813 1 0.410557 1 0.410557 1 0 
1 0 1 0 1 0 1 0.788856 1 
0.788856 1 0.482893 1 0.482893 1 1 1 1 
1 0 1 0 1 0.489736 1 0.489736 1 
0 1 0 1 0.648094 1 0.648094 1 0.545455 
1 0.545455 1 0 1 0 1 0 1 
0 1 0 1 0 1 0 1 0 
1 0 1 0 1 0 1 0 1 
0 1 0 1 0.363636 1 0.363636 1 0.490714 
1 0.490714 1 0 1 0 1 0.504399 1 
0.504399 1 0.672532 1 0.672532 1 0.419355 1 0.419355 
1 0 1 0 1 0 1 0 1 
0.458456 1 0.458456 1 0 1 0 1 0 
1 0 1 0 1 0 1 0.496579 1 
0.496579 1 0 1 0 1 0 1 0 
1 0.896383 1 0.896383 1 0 1 0 1 
0 1 0 1 0.28348 1 0.28348 1 0.243402 
1 0.243402 1 0.274682 1 0.274682 1 0 1 
0 1 0.639296 1 0.639296 1 0.390029 1 0.390029 
1 0.207234 1 0.207234 1 0 1 0 1 
0 1 0 1 0.625611 1 0.625611 1 0.463343 
1 0.463343 1 0.686217 1 0.686217 1 0.549365 1 
0.549365 1 0 1 0 1 0 1 0 
1 0 1 0 1 0.609971 1 0.609971 1 
0.43695 1 0.43695 1 0 1 0 1 0 
1 0 1 0.318671 1 0.318671 1 0.790811 1 
0.790811 1 0 1 0 1 0 1 0 
1 0.539589 1 0.539589 1 0.661779 1 0.661779 1 
0 1 0 1 0.616813 1 0.616813 1 0.410557 
1 0.410557 1 0 1 0 1 0 1 
0 1 0 1 0 1 0.334311 1 0.334311 
1 0 1 0 1 0 1 0 1 
0 1 0 1 0 1 0 1 0 
1 0 1 0 1 0 1 0 1 
0 1 0 1 0 1 0.215054 1 0.215054 
1 0.494624 1 0.494624 1 0.426197 1 0.426197 1 
0.588465 1 0.588465 1 0.561095 1 0.561095 1 0 
1 0 1 0 1 0 1 0.426197 1 
0.426197 1 0.42131 1 0.42131 1 0 1 0 
1 0 1 0 1 0 1 0 1 
0.577713 1 0.577713 1 0 1 0 1 0 
1 0 1 0.523949 1 0.523949 1 0 1 
0 1 0.457478 1 0.457478 1 0 1 0 
1 0.709677 1 0.709677 1 0 1 0 1 
0 1 0 1 0.337243 1 0.337243 1 0.519062 
1 0.519062 1 0.443793 1 0.443793 1 0.727273 1 
0.727273 1 0.470186 1 0.470186 1 0 1 0 
1 0 1 0 1 0 1 0 1 
0.507331 1 0.507331 1 0 1 0 1 0.718475 
1 0.718475 1 0 1 0 1 0.556207 1 
0.556207 1 0 1 0 1 0.43695 1 0.43695 
1 0 1 0 1 0.461388 1 0.461388 1 
0 1 0 1 0 1 0 1 0 
1 0 1 0.42913 1 0.42913 1 0 1 
0 1 0 1 0 1 0.666667 1 0.666667 
1 0 1 0 1 0 1 0 1 
0 1 0 1 0 1 0 1 0.466276 
1 0.466276 1 0 1 0 1 0 1 
0 1 0 1 0 1 0 1 0 
1 0.334311 1 0.334311 1 0 1 0 1 
0 1 0 1 0 1 0 1 0 
1 0 1 0 1 0 1 0 1 
0 1 0 1 0 1 0 1 0 
1 0.215054 1 0.215054 1 0.494624 1 0.494624 1 
0.426197 1 0.426197 1 0.588465 1 0.588465 1 0.561095 
1 0.561095 1 0 1 0 1 0 1 
0 1 0.426197 1 0.426197 1 0.42131 1 0.42131 
1 0 1 0 1 0 1 0 1 
0 1 0 1 0.577713 1 0.577713 1 0 
1 0 1 0 1 0 1 0.523949 1 
0.523949 1 0 1 0 1 0.457478 1 0.457478 
1 0 1 0 1 0.709677 1 0.709677 1 
0 1 0 1 0 1 0 1 0.337243 
1 0.337243 1 0.519062 1 0.519062 1 0.443793 1 
0.443793 1 0.727273 1 0.727273 1 0.470186 1 0.470186 
1 0 1 0 1 0 1 0 1 
0 1 0 1 0.507331 1 0.507331 1 0 
1 0 1 0.718475 1 0.718475 1 0 1 
0 1 0.556207 1 0.556207 1 0 1 0 
1 0.43695 1 0.43695 1 0 1 0 1 
0.461388 1 0.461388 1 0 1 0 1 0 
1 0 1 0 1 0 1 0.42913 1 
0.42913 1 0 1 0 1 0 1 0 
1 0.666667 1 0.666667 1 0 1 0 1 
0 1 0 1 0 1 0 1 0 
1 0 1 0.466276 1 0.466276 1 0 1 
0 1 0 1 0 1 0 1 0 
1 0.554252 1 0.554252 1 0 1 0 1 
0 1 0 1 0 1 0 1 0.645161 
1 0.645161 1 0.241447 1 0.241447 1 0 1 
0 1 0 1 0 1 0.40958 1 0.40958 
1 0 1 0 1 0 1 0 1 
0 1 0 1 0 1 0 1 0 
1 0 1 0 1 0 1 0.459433 1 
0.459433 1 0 1 0 1 0 1 0 
1 0.932551 1 0.932551 1 0 1 0 1 
0 1 0 1 0.59433 1 0.59433 1 0.40567 
1 0.40567 1 0.359726 1 0.359726 1 0.585533 1 
0.585533 1 0.438905 1 0.438905 1 0 1 0 
1 0.552297 1 0.552297 1 0 1 0 1 
0.449658 1 0.449658 1 0 1 0 1 0.552297 
1 0.552297 1 0 1 0 1 0.545455 1 
0.545455 1 0.430108 1 0.430108 1 0 1 0 
1 0.370479 1 0.370479 1 0 1 0 1 
0.481916 1 0.481916 1 0 1 0 1 0.512219 
1 0.512219 1 0.418377 1 0.418377 1 0.553275 1 
0.553275 1 0 1 0 1 0 1 0 
1 0.388074 1 0.388074 1 0.476051 1 0.476051 1 
0.615836 1 0.615836 1 0 1 0 1 0.42522 
1 0.42522 1 0.441838 1 0.441838 1 0 1 
0 1 0 1 0 1 0 1 0 
1 0 1 0 1 0 1 0 1 
0.504399 1 0.504399 1 0.183773 1 0.183773 1 0.395894 
1 0.395894 1 0.499511 1 0.499511 1 0.640274 1 
0.640274 1 0.73216 1 0.73216 1 0.585533 1 0.585533 
1 0 1 0 1 0.554252 1 0.554252 1 
0 1 0 1 0 1 0 1 0 
1 0 1 0.645161 1 0.645161 1 0.241447 1 
0.241447 1 0 1 0 1 0 1 0 
1 0.40958 1 0.40958 1 0 1 0 1 
0 1 0 1 0 1 0 1 0 
1 0 1 0 1 0 1 0 1 
0 1 0.459433 1 0.459433 1 0 1 0 
1 0 1 0 1 0.932551 1 0.932551 1 
0 1 0 1 0 1 0 1 0.59433 
1 0.59433 1 0.40567 1 0.40567 1 0.359726 1 
0.359726 1 0.585533 1 0.585533 1 0.438905 1 0.438905 
1 0 1 0 1 0.552297 1 0.552297 1 
0 1 0 1 0.449658 1 0.449658 1 0 
1 0 1 0.552297 1 0.552297 1 0 1 
0 1 0.545455 1 0.545455 1 0.430108 1 0.430108 
1 0 1 0 1 0.370479 1 0.370479 1 
0 1 0 1 0.481916 1 0.481916 1 0 
1 0 1 0.512219 1 0.512219 1 0.418377 1 
0.418377 1 0.553275 1 0.553275 1 0 1 0 
1 0 1 0 1 0.388074 1 0.388074 1 
0.476051 1 0.476051 1 0.615836 1 0.615836 1 0 
1 0 1 0.42522 1 0.42522 1 0.441838 1 
0.441838 1 0 1 0 1 0 1 0 
1 0 1 0 1 0 1 0 1 
0 1 0 1 0.504399 1 0.504399 1 0.183773 
1 0.183773 1 0.395894 1 0.395894 1 0.499511 1 
0.499511 1 0.640274 1 0.640274 1 0.73216 1 0.73216 
1 0.585533 1 0.585533 1 0.335288 1 0.335288 1 
0 1 0 1 0 1 0 1 0 
1 0 1 0 1 0 1 0.44086 1 
0.44086 1 0 1 0 1 0 1 0 
1 0 1 0 1 0 1 0 1 
0.389052 1 0.389052 1 0 1 0 1 0 
1 0 1 0.69697 1 0.69697 1 0.5435 1 
0.5435 1 0.775171 1 0.775171 1 0.629521 1 0.629521 
1 0 1 0 1 0.192571 1 0.192571 1 
0.487781 1 0.487781 1 0 1 0 1 0 
1 0 1 0 1 0 1 0 1 
0 1 0 1 0 1 0 1 0 
1 0.315738 1 0.315738 1 0.558162 1 0.558162 1 
0 1 0 1 0 1 0 1 0 
1 0 1 0 1 0 1 0.791789 1 
0.791789 1 0 1 0 1 0 1 0 
1 0.5435 1 0.5435 1 0.624633 1 0.624633 1 
0 1 0 1 0 1 0 1 0 
1 0 1 0 1 0 1 0.253177 1 
0.253177 1 0 1 0 1 0.478983 1 0.478983 
1 0 1 0 1 0 1 0 1 
0 1 0 1 0.537634 1 0.537634 1 0 
1 0 1 0 1 0 1 0.42913 1 
0.42913 1 0.195503 1 0.195503 1 0.619746 1 0.619746 
1 0 1 0 1 0.615836 1 0.615836 1 
0.450635 1 0.450635 1 0.54741 1 0.54741 1 0 
1 0 1 0 1 0 1 0 1 
0 1 0.561095 1 0.561095 1 0.408602 1 0.408602 
1 0.508309 1 0.508309 1 0.565982 1 0.565982 1 
0.335288 1 0.335288 1 0 1 0 1 0 
1 0 1 0 1 0 1 0 1 
0 1 0.44086 1 0.44086 1 0 1 0 
1 0 1 0 1 0 1 0 1 
0 1 0 1 0.389052 1 0.389052 1 0 
1 0 1 0 1 0 1 0.69697 1 
0.69697 1 0.5435 1 0.5435 1 0.775171 1 0.775171 
1 0.629521 1 0.629521 1 0 1 0 1 
0.192571 1 0.192571 1 0.487781 1 0.487781 1 0 
1 0 1 0 1 0 1 0 1 
0 1 0 1 0 1 0 1 0 
1 0 1 0 1 0.315738 1 0.315738 1 
0.558162 1 0.558162 1 0 1 0 1 0 
1 0 1 0 1 0 1 0 1 
0 1 0.791789 1 0.791789 1 0 1 0 
1 0 1 0 1 0.5435 1 0.5435 1 
0.624633 1 0.624633 1 0 1 0 1 0 
1 0 1 0 1 0 1 0 1 
0 1 0.253177 1 0.253177 1 0 1 0 
1 0.478983 1 0.478983 1 0 1 0 1 
0 1 0 1 0 1 0 1 0.537634 
1 0.537634 1 0 1 0 1 0 1 
0 1 0.42913 1 0.42913 1 0.195503 1 0.195503 
1 0.619746 1 0.619746 1 0 1 0 1 
0.615836 1 0.615836 1 0.450635 1 0.450635 1 0.54741 
1 0.54741 1 0 1 0 1 0 1 
0 1 0 1 0 1 0.561095 1 0.561095 
1 0.408602 1 0.408602 1 0.508309 1 0.508309 1 
0.565982 1 0.565982 1 0 1 0 1 0 
1 0 1 0 1 0 1 0 1 
0 1 0.367546 1 0.367546 1 0 1 0 
1 0 1 0 1 0.334311 1 0.334311 1 
0.430108 1 0.430108 1 0 1 0 1 0 
1 0 1 0.386119 1 0.386119 1 0 1 
0 1 0.473118 1 0.473118 1 0 1 0 
1 0 1 0 1 0 1 0 1 
0 1 0 1 0 1 0 1 0.626588 
1 0.626588 1 0 1 0 1 0.721408 1 
0.721408 1 0 1 0 1 0 1 0 
1 0 1 0 1 0 1 0 1 
0.496579 1 0.496579 1 0.824047 1 0.824047 1 0 
1 0 1 0.572825 1 0.572825 1 0.308895 1 
0.308895 1 0 1 0 1 0 1 0 
1 0 1 0 1 0 1 0 1 
0.661779 1 0.661779 1 0.516129 1 0.516129 1 0 
1 0 1 0 1 0 1 0 1 
0 1 0 1 0 1 0 1 0 
1 0 1 0 1 0.318671 1 0.318671 1 
0.340176 1 0.340176 1 0 1 0 1 0.238514 
1 0.238514 1 0 1 0 1 0 1 
0 1 0 1 0 1 0.813294 1 0.813294 
1 0.41349 1 0.41349 1 0 1 0 1 
0 1 0 1 0.343109 1 0.343109 1 0.836755 
1 0.836755 1 0 1 0 1 0 1 
0 1 0 1 0 1 0.352884 1 0.352884 
1 0.719453 1 0.719453 1 0.366569 1 0.366569 1 
0 1 0 1 0 1 0 1 0 
1 0 1 0 1 0 1 0 1 
0 1 0 1 0 1 0.367546 1 0.367546 
1 0 1 0 1 0 1 0 1 
0.334311 1 0.334311 1 0.430108 1 0.430108 1 0 
1 0 1 0 1 0 1 0.386119 1 
0.386119 1 0 1 0 1 0.473118 1 0.473118 
1 0 1 0 1 0 1 0 1 
0 1 0 1 0 1 0 1 0 
1 0 1 0.626588 1 0.626588 1 0 1 
0 1 0.721408 1 0.721408 1 0 1 0 
1 0 1 0 1 0 1 0 1 
0 1 0 1 0.496579 1 0.496579 1 0.824047 
1 0.824047 1 0 1 0 1 0.572825 1 
0.572825 1 0.308895 1 0.308895 1 0 1 0 
1 0 1 0 1 0 1 0 1 
0 1 0 1 0.661779 1 0.661779 1 0.516129 
1 0.516129 1 0 1 0 1 0 1 
0 1 0 1 0 1 0 1 0 
1 0 1 0 1 0 1 0 1 
0.318671 1 0.318671 1 0.340176 1 0.340176 1 0 
1 0 1 0.238514 1 0.238514 1 0 1 
0 1 0 1 0 1 0 1 0 
1 0.813294 1 0.813294 1 0.41349 1 0.41349 1 
0 1 0 1 0 1 0 1 0.343109 
1 0.343109 1 0.836755 1 0.836755 1 0 1 
0 1 0 1 0 1 0 1 0 
1 0.352884 1 0.352884 1 0.719453 1 0.719453 1 
0.366569 1 0.366569 1 0 1 0 1 0 
1 0 1 0.537634 1 0.537634 1 0.497556 1 
0.497556 1 0.0596285 1 0.0596285 1 0.396872 1 0.396872 
1 0.42131 1 0.42131 1 0 1 0 1 
0.386119 1 0.386119 1 0 1 0 1 0.398827 
1 0.398827 1 0 1 0 1 0 1 
0 1 0.335288 1 0.335288 1 0.553275 1 0.553275 
1 0.583578 1 0.583578 1 0.462366 1 0.462366 1 
0.486804 1 0.486804 1 0.676442 1 0.676442 1 0.493646 
1 0.493646 1 0 1 0 1 0 1 
0 1 0.617791 1 0.617791 1 0 1 0 
1 0.328446 1 0.328446 1 0 1 0 1 
0.344086 1 0.344086 1 0 1 0 1 0.282502 
1 0.282502 1 0 1 0 1 0 1 
0 1 0.42522 1 0.42522 1 0.625611 1 0.625611 
1 0 1 0 1 0 1 0 1 
0 1 0 1 0.575758 1 0.575758 1 0.624633 
1 0.624633 1 0.592375 1 0.592375 1 0 1 
0 1 0.394917 1 0.394917 1 0.470186 1 0.470186 
1 0 1 0 1 0 1 0 1 
0.213099 1 0.213099 1 0 1 0 1 0 
1 0 1 0.423265 1 0.423265 1 0.591398 1 
0.591398 1 0.829912 1 0.829912 1 0.508309 1 0.508309 
1 0.599218 1 0.599218 1 0 1 0 1 
0.812317 1 0.812317 1 0.196481 1 0.196481 1 0 
1 0 1 0 1 0 1 0.69306 1 
0.69306 1 0.423265 1 0.423265 1 0 1 0 
1 0.801564 1 0.801564 1 0 1 0 1 
0 1 0 1 0.584555 1 0.584555 1 0 
1 0 1 0.471163 1 0.471163 1 0.537634 1 
0.537634 1 0.497556 1 0.497556 1 0.0596285 1 0.0596285 
1 0.396872 1 0.396872 1 0.42131 1 0.42131 1 
0 1 0 1 0.386119 1 0.386119 1 0 
1 0 1 0.398827 1 0.398827 1 0 1 
0 1 0 1 0 1 0.335288 1 0.335288 
1 0.553275 1 0.553275 1 0.583578 1 0.583578 1 
0.462366 1 0.462366 1 0.486804 1 0.486804 1 0.676442 
1 0.676442 1 0.493646 1 0.493646 1 0 1 
0 1 0 1 0 1 0.617791 1 0.617791 
1 0 1 0 1 0.328446 1 0.328446 1 
0 1 0 1 0.344086 1 0.344086 1 0 
1 0 1 0.282502 1 0.282502 1 0 1 
0 1 0 1 0 1 0.42522 1 0.42522 
1 0.625611 1 0.625611 1 0 1 0 1 
0 1 0 1 0 1 0 1 0.575758 
1 0.575758 1 0.624633 1 0.624633 1 0.592375 1 
0.592375 1 0 1 0 1 0.394917 1 0.394917 
1 0.470186 1 0.470186 1 0 1 0 1 
0 1 0 1 0.213099 1 0.213099 1 0 
1 0 1 0 1 0 1 0.423265 1 
0.423265 1 0.591398 1 0.591398 1 0.829912 1 0.829912 
1 0.508309 1 0.508309 1 0.599218 1 0.599218 1 
0 1 0 1 0.812317 1 0.812317 1 0.196481 
1 0.196481 1 0 1 0 1 0 1 
0 1 0.69306 1 0.69306 1 0.423265 1 0.423265 
1 0 1 0 1 0.801564 1 0.801564 1 
0 1 0 1 0 1 0 1 0.584555 
1 0.584555 1 0 1 0 1 0.471163 1 
0.471163 1 0.749756 1 0.749756 1 0 1 0 
1 0.649071 1 0.649071 1 0 1 0 1 
0 1 0 1 0 1 0 1 0 