# vtk DataFile Version 3.0
vtk output
ASCII
DATASET STRUCTURED_POINTS
DIMENSIONS 201 201 1
SPACING 1 1 1
ORIGIN 0 0 0
CELL_DATA 40000
FIELD FieldData 1
tex 2 40000 float
74 255 156 255 99 255 66 255 66 
255 66 255 132 255 99 255 115 255 
41 255 49 255 33 255 41 255 24 
255 57 255 82 255 107 255 49 255 
82 255 57 255 107 255 123 255 57 
255 82 255 82 255 74 255 140 255 
99 255 49 255 82 255 57 255 74 
255 49 255 107 255 66 255 41 255 
90 255 156 255 156 255 49 255 115 
255 99 255 99 255 107 255 140 255 
66 255 66 255 66 255 115 255 99 
255 115 255 90 255 33 255 107 255 
90 255 49 255 115 255 99 255 57 
255 115 255 90 255 33 255 66 255 
82 255 123 255 132 255 74 255 107 
255 115 255 99 255 49 255 74 255 
123 255 57 255 115 255 99 255 90 
255 49 255 57 255 82 255 74 255 
82 255 82 255 107 255 66 255 123 
255 107 255 41 255 90 255 66 255 
107 255 90 255 107 255 41 255 74 
255 57 255 74 255 66 255 66 255 
57 255 66 255 49 255 57 255 41 
255 132 255 82 255 74 255 99 255 
123 255 115 255 66 255 57 255 57 
255 74 255 99 255 90 255 107 255 
74 255 99 255 82 255 123 255 66 
255 148 255 99 255 82 255 74 255 
115 255 66 255 107 255 41 255 115 
255 74 255 74 255 66 255 41 255 
82 255 24 255 74 255 90 255 41 
255 115 255 74 255 41 255 74 255 
123 255 132 255 74 255 107 255 132 
255 74 255 107 255 90 255 74 255 
57 255 115 255 82 255 99 255 132 
255 49 255 90 255 66 255 66 255 
99 255 66 255 82 255 99 255 82 
255 132 255 82 255 74 255 90 255 
82 255 57 255 115 255 107 255 90 
255 33 255 148 255 107 255 74 255 
90 255 115 255 66 255 132 255 99 
255 57 255 41 255 57 255 115 255 
82 255 41 255 74 255 66 255 90 
255 57 255 49 255 57 255 115 255 
41 255 99 255 41 255 99 255 148 
255 90 255 41 255 74 255 107 255 
33 255 57 255 41 255 90 255 74 
255 57 255 82 255 57 255 66 255 
99 255 99 255 66 255 74 255 132 
255 132 255 66 255 74 255 66 255 
99 255 123 255 74 255 41 255 66 
255 66 255 49 255 24 255 82 255 
82 255 90 255 82 255 90 255 148 
255 41 255 99 255 33 255 132 255 
123 255 115 255 107 255 99 255 24 
255 107 255 132 255 57 255 49 255 
57 255 49 255 49 255 107 255 49 
255 82 255 66 255 74 255 99 255 
24 255 90 255 49 255 82 255 82 
255 99 255 107 255 107 255 57 255 
49 255 24 255 74 255 74 255 140 
255 99 255 115 255 82 255 41 255 
57 255 115 255 74 255 57 255 57 
255 99 255 82 255 33 255 33 255 
99 255 99 255 82 255 49 255 82 
255 57 255 107 255 66 255 49 255 
82 255 57 255 74 255 90 255 148 
255 123 255 99 255 148 255 90 255 
57 255 90 255 74 255 66 255 82 
255 90 255 82 255 74 255 115 255 
49 255 33 255 41 255 99 255 49 
255 115 255 74 255 99 255 90 255 
41 255 99 255 132 255 123 255 49 
255 33 255 107 255 74 255 82 255 
82 255 115 255 66 255 66 255 41 
255 82 255 66 255 107 255 115 255 
49 255 74 255 41 255 74 255 82 
255 66 255 123 255 140 255 90 255 
90 255 90 255 115 255 115 255 74 
255 57 255 90 255 107 255 99 255 
66 255 90 255 57 255 66 255 99 
255 107 255 82 255 107 255 49 255 
123 255 66 255 107 255 66 255 99 
255 99 255 140 255 66 255 99 255 
140 255 156 255 74 255 115 255 107 
255 99 255 140 255 49 255 49 255 
74 255 74 255 115 255 49 255 57 
255 82 255 74 255 49 255 90 255 
90 255 107 255 107 255 140 255 132 
255 74 255 66 255 24 255 107 255 
33 255 57 255 66 255 115 255 82 
255 33 255 66 255 156 255 107 255 
66 255 99 255 41 255 49 255 57 
255 24 255 115 255 148 255 99 255 
41 255 66 255 49 255 49 255 33 
255 74 255 82 255 99 255 74 255 
49 255 74 255 115 255 90 255 90 
255 115 255 99 255 57 255 115 255 
66 255 99 255 82 255 90 255 74 
255 132 255 82 255 41 255 66 255 
74 255 123 255 99 255 82 255 41 
255 57 255 33 255 107 255 74 255 
57 255 107 255 132 255 74 255 66 
255 82 255 173 255 82 255 33 255 
74 255 82 255 74 255 90 255 66 
255 90 255 82 255 123 255 132 255 
156 255 41 255 66 255 99 255 74 
255 24 255 66 255 49 255 57 255 
57 255 99 255 82 255 82 255 99 
255 82 255 57 255 33 255 99 255 
115 255 107 255 74 255 57 255 66 
255 123 255 90 255 74 255 41 255 
90 255 115 255 90 255 74 255 66 
255 82 255 107 255 74 255 66 255 
115 255 99 255 99 255 82 255 148 
255 74 255 90 255 66 255 74 255 
16 255 115 255 41 255 107 255 132 
255 165 255 49 255 66 255 74 255 
66 255 148 255 82 255 99 255 107 
255 82 255 8 255 123 255 57 255 
66 255 115 255 57 255 57 255 41 
255 74 255 107 255 74 255 115 255 
132 255 99 255 90 255 57 255 66 
255 66 255 90 255 57 255 99 255 
99 255 107 255 66 255 66 255 66 
255 74 255 156 255 140 255 156 255 
49 255 90 255 99 255 57 255 115 
255 41 255 82 255 132 255 148 255 
123 255 99 255 99 255 140 255 132 
255 33 255 8 255 74 255 66 255 
66 255 90 255 107 255 49 255 99 
255 90 255 132 255 41 255 49 255 
74 255 82 255 123 255 140 255 82 
255 33 255 107 255 90 255 90 255 
66 255 74 255 82 255 107 255 24 
255 99 255 57 255 123 255 115 255 
132 255 74 255 57 255 165 255 66 
255 49 255 57 255 82 255 33 255 
8 255 57 255 57 255 115 255 74 
255 82 255 74 255 132 255 132 255 
82 255 90 255 66 255 41 255 74 
255 74 255 16 255 41 255 66 255 
74 255 99 255 66 255 115 255 66 
255 90 255 24 255 132 255 41 255 
99 255 57 255 123 255 99 255 165 
255 148 255 90 255 99 255 165 255 
82 255 41 255 41 255 82 255 74 
255 115 255 140 255 74 255 41 255 
82 255 74 255 82 255 123 255 41 
255 66 255 33 255 82 255 33 255 
66 255 82 255 66 255 74 255 132 
255 90 255 99 255 99 255 99 255 
165 255 90 255 90 255 41 255 99 
255 115 255 132 255 82 255 57 255 
16 255 16 255 82 255 49 255 66 
255 24 255 41 255 99 255 123 255 
57 255 49 255 82 255 107 255 99 
255 107 255 99 255 74 255 107 255 
74 255 82 255 123 255 82 255 66 
255 33 255 148 255 90 255 41 255 
57 255 115 255 99 255 123 255 107 
255 74 255 90 255 115 255 57 255 
74 255 99 255 107 255 156 255 132 
255 49 255 82 255 99 255 49 255 
107 255 82 255 82 255 82 255 140 
255 57 255 33 255 49 255 57 255 
74 255 148 255 132 255 99 255 107 
255 99 255 49 255 16 255 49 255 
49 255 74 255 140 255 107 255 16 
255 33 255 82 255 90 255 99 255 
74 255 74 255 66 255 90 255 66 
255 90 255 8 255 49 255 74 255 
74 255 156 255 74 255 156 255 107 
255 82 255 132 255 74 255 123 255 
107 255 74 255 99 255 140 255 123 
255 74 255 82 255 107 255 99 255 
107 255 99 255 82 255 107 255 90 
255 99 255 123 255 74 255 107 255 
132 255 49 255 140 255 49 255 24 
255 107 255 132 255 123 255 66 255 
90 255 123 255 99 255 57 255 33 
255 66 255 90 255 82 255 41 255 
90 255 49 255 74 255 66 255 66 
255 115 255 82 255 49 255 74 255 
74 255 140 255 66 255 99 255 82 
255 107 255 132 255 90 255 99 255 
90 255 90 255 57 255 99 255 90 
255 66 255 90 255 57 255 99 255 
90 255 74 255 90 255 132 255 90 
255 82 255 123 255 140 255 82 255 
99 255 99 255 123 255 74 255 82 
255 148 255 132 255 99 255 49 255 
99 255 41 255 99 255 66 255 66 
255 99 255 90 255 41 255 156 255 
49 255 57 255 66 255 107 255 66 
255 115 255 74 255 74 255 99 255 
82 255 74 255 74 255 41 255 90 
255 66 255 82 255 66 255 82 255 
123 255 74 255 57 255 74 255 57 
255 41 255 66 255 82 255 90 255 
123 255 57 255 99 255 66 255 24 
255 82 255 82 255 82 255 57 255 
82 255 24 255 16 255 66 255 74 
255 99 255 107 255 115 255 33 255 
90 255 99 255 82 255 140 255 123 
255 90 255 132 255 49 255 107 255 
132 255 66 255 140 255 107 255 74 
255 115 255 74 255 8 255 41 255 
41 255 74 255 123 255 99 255 90 
255 33 255 90 255 99 255 123 255 
82 255 49 255 33 255 82 255 99 
255 99 255 107 255 107 255 41 255 
107 255 99 255 90 255 49 255 90 
255 99 255 66 255 41 255 66 255 
115 255 49 255 74 255 99 255 99 
255 107 255 57 255 49 255 99 255 
90 255 66 255 24 255 82 255 24 
255 123 255 140 255 123 255 66 255 
99 255 66 255 107 255 82 255 49 
255 82 255 107 255 57 255 90 255 
115 255 49 255 82 255 90 255 41 
255 57 255 57 255 57 255 99 255 
140 255 49 255 90 255 41 255 115 
255 82 255 99 255 99 255 140 255 
132 255 132 255 99 255 66 255 148 
255 66 255 74 255 90 255 99 255 
90 255 24 255 74 255 140 255 123 
255 74 255 33 255 57 255 74 255 
57 255 115 255 82 255 165 255 115 
255 99 255 74 255 57 255 66 255 
66 255 165 255 82 255 57 255 66 
255 49 255 74 255 115 255 90 255 
74 255 123 255 123 255 90 255 74 
255 107 255 74 255 115 255 41 255 
132 255 99 255 140 255 90 255 115 
255 74 255 74 255 99 255 123 255 
49 255 66 255 90 255 74 255 148 
255 123 255 173 255 74 255 66 255 
90 255 66 255 57 255 49 255 107 
255 66 255 123 255 123 255 82 255 
99 255 115 255 107 255 132 255 82 
255 99 255 57 255 90 255 41 255 
82 255 107 255 57 255 107 255 123 
255 74 255 74 255 57 255 74 255 
33 255 49 255 107 255 90 255 132 
255 57 255 107 255 107 255 74 255 
123 255 57 255 107 255 74 255 82 
255 123 255 115 255 148 255 115 255 
82 255 82 255 74 255 57 255 57 
255 66 255 49 255 115 255 49 255 
66 255 148 255 107 255 115 255 41 
255 115 255 41 255 132 255 115 255 
82 255 49 255 49 255 107 255 66 
255 57 255 74 255 57 255 99 255 
49 255 107 255 82 255 74 255 148 
255 140 255 74 255 99 255 107 255 
74 255 99 255 156 255 90 255 33 
255 66 255 115 255 74 255 49 255 
90 255 24 255 107 255 99 255 66 
255 173 255 99 255 90 255 49 255 
74 255 90 255 107 255 90 255 99 
255 132 255 123 255 90 255 99 255 
140 255 74 255 132 255 140 255 24 
255 16 255 90 255 132 255 82 255 
115 255 74 255 74 255 57 255 66 
255 107 255 49 255 66 255 57 255 
49 255 99 255 140 255 33 255 74 
255 33 255 90 255 90 255 74 255 
57 255 57 255 107 255 115 255 148 
255 74 255 66 255 90 255 82 255 
107 255 90 255 57 255 99 255 99 
255 99 255 115 255 57 255 99 255 
99 255 82 255 74 255 82 255 115 
255 49 255 57 255 107 255 82 255 
99 255 107 255 74 255 74 255 148 
255 99 255 82 255 99 255 74 255 
90 255 66 255 107 255 107 255 49 
255 74 255 82 255 49 255 66 255 
74 255 49 255 156 255 82 255 140 
255 148 255 66 255 33 255 41 255 
99 255 90 255 24 255 41 255 99 
255 66 255 123 255 132 255 165 255 
49 255 82 255 33 255 115 255 74 
255 66 255 90 255 74 255 90 255 
66 255 99 255 24 255 66 255 49 
255 165 255 57 255 57 255 107 255 
99 255 74 255 82 255 66 255 82 
255 140 255 165 255 82 255 99 255 
82 255 115 255 99 255 41 255 66 
255 107 255 165 255 82 255 107 255 
107 255 66 255 132 255 107 255 66 
255 82 255 90 255 99 255 66 255 
115 255 123 255 49 255 123 255 107 
255 41 255 115 255 82 255 33 255 
33 255 90 255 90 255 82 255 41 
255 41 255 82 255 107 255 41 255 
49 255 82 255 66 255 90 255 74 
255 115 255 66 255 66 255 99 255 
33 255 123 255 90 255 99 255 90 
255 57 255 82 255 107 255 90 255 
90 255 123 255 24 255 41 255 90 
255 49 255 49 255 107 255 99 255 
99 255 82 255 49 255 90 255 74 
255 82 255 66 255 107 255 82 255 
41 255 74 255 123 255 82 255 99 
255 115 255 107 255 123 255 140 255 
66 255 57 255 57 255 156 255 148 
255 90 255 140 255 107 255 107 255 
148 255 99 255 107 255 99 255 123 
255 74 255 66 255 66 255 90 255 
49 255 165 255 74 255 66 255 74 
255 99 255 74 255 24 255 57 255 
140 255 99 255 99 255 41 255 74 
255 74 255 74 255 82 255 74 255 
66 255 57 255 41 255 107 255 82 
255 107 255 107 255 66 255 41 255 
49 255 107 255 99 255 74 255 66 
255 115 255 115 255 57 255 74 255 
49 255 90 255 74 255 99 255 82 
255 107 255 123 255 49 255 82 255 
49 255 74 255 123 255 49 255 57 
255 82 255 66 255 66 255 107 255 
57 255 82 255 66 255 82 255 74 
255 49 255 132 255 49 255 74 255 
33 255 90 255 132 255 99 255 57 
255 99 255 41 255 74 255 66 255 
99 255 49 255 74 255 49 255 82 
255 74 255 74 255 57 255 90 255 
90 255 82 255 82 255 107 255 57 
255 57 255 57 255 123 255 90 255 
82 255 99 255 82 255 115 255 99 
255 107 255 132 255 66 255 99 255 
82 255 99 255 66 255 99 255 57 
255 82 255 33 255 115 255 123 255 
99 255 115 255 99 255 41 255 132 
255 82 255 66 255 115 255 99 255 
66 255 41 255 90 255 173 255 140 
255 140 255 107 255 99 255 82 255 
90 255 57 255 49 255 90 255 90 
255 99 255 57 255 41 255 66 255 
82 255 74 255 90 255 74 255 90 
255 74 255 148 255 132 255 33 255 
57 255 66 255 41 255 107 255 66 
255 90 255 115 255 74 255 41 255 
82 255 24 255 57 255 115 255 90 
255 99 255 99 255 74 255 57 255 
82 255 66 255 66 255 115 255 24 
255 74 255 49 255 33 255 49 255 
99 255 107 255 49 255 132 255 99 
255 90 255 132 255 115 255 132 255 
115 255 148 255 107 255 115 255 66 
255 123 255 115 255 41 255 148 255 
57 255 82 255 123 255 49 255 123 
255 99 255 74 255 107 255 41 255 
66 255 82 255 33 255 57 255 140 
255 90 255 57 255 90 255 57 255 
90 255 33 255 107 255 115 255 74 
255 49 255 82 255 57 255 132 255 
140 255 123 255 107 255 74 255 99 
255 90 255 90 255 123 255 82 255 
82 255 107 255 115 255 74 255 90 
255 90 255 140 255 57 255 49 255 
57 255 74 255 66 255 49 255 66 
255 156 255 90 255 74 255 123 255 
57 255 107 255 99 255 82 255 82 
255 49 255 24 255 90 255 66 255 
115 255 74 255 49 255 99 255 74 
255 66 255 90 255 74 255 90 255 
57 255 99 255 74 255 82 255 99 
255 99 255 123 255 66 255 57 255 
49 255 90 255 123 255 24 255 99 
255 57 255 57 255 24 255 107 255 
123 255 148 255 74 255 66 255 99 
255 41 255 90 255 82 255 99 255 
107 255 90 255 107 255 123 255 99 
255 90 255 99 255 132 255 107 255 
74 255 82 255 82 255 107 255 49 
255 57 255 66 255 132 255 57 255 
99 255 132 255 99 255 90 255 16 
255 24 255 82 255 99 255 66 255 
49 255 41 255 41 255 74 255 74 
255 132 255 49 255 66 255 99 255 
115 255 41 255 82 255 115 255 82 
255 49 255 66 255 165 255 74 255 
74 255 57 255 33 255 107 255 132 
255 41 255 99 255 74 255 82 255 
99 255 99 255 107 255 57 255 74 
255 66 255 99 255 90 255 57 255 
66 255 107 255 82 255 33 255 90 
255 90 255 74 255 107 255 90 255 
90 255 99 255 90 255 99 255 82 
255 57 255 82 255 16 255 66 255 
99 255 49 255 132 255 82 255 41 
255 90 255 82 255 74 255 90 255 
82 255 148 255 132 255 173 255 57 
255 49 255 49 255 99 255 82 255 
74 255 49 255 90 255 57 255 123 
255 24 255 66 255 49 255 49 255 
49 255 74 255 49 255 115 255 66 
255 49 255 115 255 107 255 90 255 
57 255 66 255 99 255 66 255 82 
255 74 255 74 255 49 255 107 255 
90 255 57 255 99 255 99 255 90 
255 107 255 24 255 82 255 41 255 
123 255 90 255 99 255 74 255 74 
255 49 255 57 255 49 255 107 255 
132 255 49 255 66 255 66 255 74 
255 99 255 66 255 132 255 90 255 
90 255 90 255 156 255 107 255 66 
255 123 255 123 255 82 255 107 255 
49 255 41 255 41 255 99 255 33 
255 66 255 82 255 24 255 33 255 
90 255 115 255 90 255 49 255 132 
255 115 255 148 255 115 255 49 255 
49 255 107 255 82 255 156 255 107 
255 74 255 82 255 74 255 74 255 
57 255 99 255 57 255 74 255 99 
255 99 255 140 255 74 255 41 255 
74 255 123 255 132 255 132 255 49 
255 82 255 57 255 82 255 74 255 
123 255 115 255 82 255 99 255 82 
255 123 255 57 255 57 255 107 255 
57 255 107 255 90 255 132 255 132 
255 66 255 49 255 99 255 66 255 
74 255 16 255 57 255 115 255 49 
255 74 255 99 255 99 255 66 255 
66 255 107 255 140 255 82 255 82 
255 99 255 41 255 115 255 82 255 
181 255 41 255 33 255 74 255 49 
255 82 255 140 255 57 255 115 255 
74 255 49 255 82 255 99 255 123 
255 49 255 99 255 90 255 66 255 
66 255 66 255 49 255 57 255 82 
255 90 255 115 255 66 255 99 255 
74 255 41 255 49 255 49 255 24 
255 74 255 107 255 66 255 165 255 
66 255 82 255 82 255 57 255 132 
255 74 255 24 255 115 255 74 255 
49 255 66 255 90 255 99 255 115 
255 148 255 74 255 33 255 57 255 
74 255 74 255 107 255 82 255 123 
255 90 255 90 255 74 255 57 255 
41 255 66 255 8 255 57 255 57 
255 90 255 82 255 90 255 115 255 
107 255 99 255 99 255 49 255 66 
255 24 255 41 255 90 255 41 255 
115 255 74 255 140 255 115 255 66 
255 57 255 82 255 132 255 49 255 
99 255 74 255 16 255 82 255 99 
255 57 255 90 255 90 255 99 255 
49 255 66 255 99 255 57 255 49 
255 41 255 74 255 74 255 115 255 
140 255 82 255 99 255 57 255 74 
255 41 255 33 255 74 255 123 255 
74 255 156 255 99 255 99 255 74 
255 123 255 57 255 74 255 82 255 
123 255 82 255 82 255 148 255 90 
255 107 255 156 255 49 255 82 255 
99 255 74 255 49 255 41 255 49 
255 57 255 123 255 132 255 82 255 
74 255 132 255 82 255 132 255 16 
255 16 255 82 255 107 255 66 255 
123 255 82 255 107 255 115 255 115 
255 57 255 57 255 132 255 90 255 
49 255 33 255 140 255 140 255 66 
255 41 255 57 255 99 255 90 255 
8 255 74 255 90 255 82 255 57 
255 74 255 107 255 82 255 57 255 
123 255 57 255 57 255 107 255 49 
255 66 255 82 255 107 255 90 255 
123 255 66 255 41 255 156 255 90 
255 107 255 74 255 49 255 33 255 
99 255 49 255 140 255 99 255 115 
255 74 255 90 255 66 255 140 255 
49 255 57 255 115 255 57 255 66 
255 82 255 107 255 107 255 66 255 
24 255 107 255 66 255 90 255 99 
255 49 255 99 255 107 255 123 255 
90 255 74 255 99 255 57 255 57 
255 57 255 16 255 99 255 74 255 
99 255 90 255 66 255 107 255 66 
255 66 255 82 255 107 255 33 255 
66 255 90 255 132 255 82 255 66 
255 115 255 140 255 82 255 90 255 
74 255 66 255 99 255 74 255 74 
255 57 255 74 255 123 255 123 255 
57 255 107 255 123 255 74 255 66 
255 66 255 123 255 82 255 107 255 
82 255 115 255 49 255 74 255 41 
255 107 255 123 255 74 255 33 255 
148 255 90 255 90 255 66 255 66 
255 24 255 107 255 33 255 115 255 
57 255 66 255 90 255 107 255 82 
255 41 255 123 255 107 255 74 255 
99 255 74 255 57 255 33 255 41 
255 49 255 99 255 99 255 140 255 
99 255 140 255 49 255 66 255 115 
255 57 255 74 255 74 255 66 255 
49 255 115 255 57 255 123 255 90 
255 57 255 99 255 57 255 66 255 
41 255 41 255 132 255 57 255 49 
255 90 255 99 255 115 255 90 255 
82 255 115 255 74 255 165 255 123 
255 115 255 82 255 74 255 107 255 
99 255 57 255 99 255 74 255 123 
255 156 255 90 255 82 255 57 255 
107 255 90 255 132 255 90 255 74 
255 41 255 33 255 41 255 82 255 
74 255 107 255 74 255 49 255 132 
255 90 255 41 255 41 255 74 255 
99 255 107 255 41 255 57 255 49 
255 99 255 49 255 49 255 66 255 
82 255 90 255 41 255 41 255 115 
255 173 255 41 255 123 255 66 255 
140 255 82 255 107 255 82 255 82 
255 123 255 115 255 74 255 66 255 
24 255 99 255 82 255 49 255 99 
255 66 255 140 255 74 255 66 255 
115 255 132 255 41 255 66 255 74 
255 74 255 57 255 90 255 57 255 
123 255 24 255 74 255 74 255 90 
255 99 255 99 255 66 255 74 255 
132 255 66 255 49 255 90 255 82 
255 82 255 132 255 66 255 41 255 
49 255 90 255 74 255 33 255 99 
255 82 255 132 255 57 255 49 255 
107 255 107 255 74 255 66 255 107 
255 41 255 49 255 99 255 115 255 
99 255 99 255 99 255 49 255 74 
255 66 255 66 255 132 255 132 255 
57 255 66 255 90 255 115 255 90 
255 16 255 107 255 99 255 132 255 
66 255 57 255 41 255 115 255 33 
255 57 255 66 255 82 255 132 255 
74 255 90 255 66 255 33 255 66 
255 57 255 82 255 90 255 107 255 
99 255 115 255 74 255 123 255 66 
255 115 255 99 255 57 255 123 255 
115 255 90 255 90 255 99 255 33 
255 90 255 33 255 57 255 74 255 
57 255 66 255 66 255 90 255 57 
255 74 255 132 255 132 255 82 255 
57 255 41 255 41 255 82 255 41 
255 66 255 66 255 90 255 90 255 
33 255 66 255 57 255 82 255 132 
255 99 255 66 255 74 255 156 255 
74 255 99 255 99 255 148 255 41 
255 189 255 156 255 49 255 66 255 
24 255 99 255 66 255 115 255 99 
255 66 255 140 255 107 255 49 255 
74 255 66 255 132 255 82 255 107 
255 115 255 41 255 90 255 90 255 
123 255 66 255 140 255 66 255 57 
255 107 255 115 255 115 255 74 255 
90 255 74 255 49 255 66 255 82 
255 33 255 66 255 115 255 140 255 
82 255 90 255 99 255 66 255 24 
255 90 255 49 255 99 255 57 255 
57 255 140 255 107 255 107 255 33 
255 74 255 107 255 57 255 90 255 
99 255 99 255 90 255 66 255 115 
255 140 255 115 255 66 255 99 255 
49 255 57 255 66 255 57 255 66 
255 74 255 82 255 189 255 66 255 
74 255 74 255 74 255 41 255 41 
255 66 255 82 255 24 255 24 255 
82 255 99 255 132 255 99 255 57 
255 82 255 115 255 66 255 82 255 
24 255 57 255 132 255 74 255 66 
255 33 255 41 255 82 255 90 255 
57 255 57 255 90 255 99 255 82 
255 66 255 41 255 66 255 90 255 
107 255 107 255 82 255 82 255 49 
255 41 255 132 255 57 255 90 255 
66 255 41 255 57 255 57 255 148 
255 49 255 57 255 57 255 107 255 
66 255 173 255 107 255 49 255 49 
255 41 255 49 255 74 255 57 255 
74 255 74 255 41 255 99 255 33 
255 99 255 148 255 107 255 74 255 
82 255 82 255 49 255 33 255 115 
255 123 255 57 255 57 255 99 255 
49 255 74 255 82 255 74 255 74 
255 57 255 49 255 90 255 82 255 
132 255 115 255 57 255 57 255 66 
255 33 255 41 255 57 255 99 255 
90 255 148 255 90 255 115 255 57 
255 90 255 66 255 49 255 74 255 
99 255 74 255 90 255 49 255 82 
255 90 255 82 255 24 255 24 255 
99 255 90 255 74 255 66 255 82 
255 74 255 57 255 148 255 123 255 
74 255 66 255 107 255 99 255 115 
255 82 255 115 255 49 255 140 255 
123 255 24 255 66 255 49 255 107 
255 33 255 99 255 107 255 57 255 
33 255 82 255 123 255 123 255 74 
255 74 255 82 255 90 255 74 255 
74 255 74 255 82 255 57 255 107 
255 115 255 115 255 16 255 123 255 
90 255 66 255 49 255 82 255 82 
255 41 255 41 255 49 255 115 255 
132 255 82 255 82 255 66 255 115 
255 140 255 66 255 74 255 90 255 
66 255 57 255 90 255 90 255 173 
255 66 255 49 255 82 255 181 255 
99 255 41 255 74 255 66 255 49 
255 90 255 82 255 165 255 107 255 
90 255 107 255 33 255 115 255 99 
255 57 255 66 255 123 255 49 255 
74 255 33 255 66 255 132 255 140 
255 107 255 74 255 74 255 107 255 
57 255 115 255 74 255 66 255 57 
255 99 255 74 255 90 255 49 255 
74 255 90 255 74 255 82 255 82 
255 24 255 24 255 66 255 90 255 
57 255 90 255 115 255 107 255 107 
255 90 255 57 255 66 255 82 255 
123 255 82 255 74 255 107 255 82 
255 99 255 74 255 90 255 74 255 
132 255 99 255 165 255 66 255 49 
255 99 255 66 255 49 255 99 255 
90 255 16 255 33 255 107 255 82 
255 33 255 66 255 66 255 74 255 
74 255 41 255 90 255 115 255 140 
255 107 255 132 255 66 255 33 255 
49 255 66 255 41 255 99 255 90 
255 74 255 57 255 66 255 57 255 
49 255 82 255 140 255 66 255 90 
255 140 255 99 255 82 255 82 255 
74 255 66 255 66 255 189 255 99 
255 82 255 123 255 74 255 90 255 
33 255 74 255 66 255 82 255 82 
255 66 255 90 255 123 255 82 255 
57 255 24 255 74 255 33 255 24 
255 107 255 99 255 107 255 74 255 
132 255 148 255 82 255 66 255 41 
255 41 255 33 255 57 255 165 255 
66 255 156 255 82 255 148 255 115 
255 49 255 74 255 49 255 74 255 
99 255 49 255 57 255 66 255 66 
255 82 255 49 255 33 255 66 255 
90 255 74 255 57 255 115 255 99 
255 49 255 99 255 123 255 74 255 
66 255 140 255 107 255 41 255 82 
255 90 255 66 255 49 255 74 255 
90 255 123 255 107 255 90 255 41 
255 74 255 49 255 99 255 107 255 
115 255 90 255 41 255 41 255 107 
255 57 255 90 255 57 255 74 255 
66 255 140 255 82 255 165 255 132 
255 82 255 74 255 123 255 115 255 
140 255 49 255 82 255 123 255 74 
255 115 255 41 255 24 255 57 255 
132 255 41 255 99 255 90 255 24 
255 66 255 57 255 90 255 74 255 
107 255 57 255 33 255 107 255 74 
255 82 255 90 255 90 255 24 255 
41 255 49 255 49 255 90 255 24 
255 90 255 66 255 74 255 49 255 
66 255 99 255 66 255 107 255 107 
255 49 255 90 255 99 255 41 255 
82 255 132 255 82 255 66 255 82 
255 107 255 33 255 57 255 99 255 
140 255 132 255 123 255 41 255 74 
255 66 255 57 255 82 255 49 255 
66 255 132 255 57 255 115 255 49 
255 74 255 115 255 49 255 16 255 
57 255 33 255 148 255 107 255 74 
255 107 255 90 255 74 255 123 255 
74 255 57 255 41 255 66 255 57 
255 66 255 49 255 41 255 82 255 
57 255 82 255 57 255 99 255 99 
255 57 255 90 255 66 255 66 255 
90 255 123 255 82 255 66 255 90 
255 165 255 74 255 140 255 115 255 
49 255 140 255 49 255 99 255 49 
255 107 255 57 255 33 255 66 255 
107 255 99 255 49 255 82 255 99 
255 41 255 33 255 33 255 57 255 
33 255 49 255 66 255 82 255 107 
255 24 255 115 255 90 255 107 255 
57 255 99 255 41 255 132 255 107 
255 90 255 74 255 123 255 57 255 
132 255 115 255 49 255 90 255 57 
255 41 255 66 255 115 255 123 255 
66 255 90 255 90 255 132 255 99 
255 57 255 33 255 66 255 140 255 
123 255 74 255 57 255 115 255 66 
255 41 255 66 255 90 255 57 255 
99 255 123 255 74 255 82 255 115 
255 66 255 33 255 82 255 90 255 
74 255 57 255 115 255 90 255 74 
255 74 255 66 255 173 255 123 255 
82 255 82 255 123 255 90 255 74 
255 132 255 115 255 99 255 99 255 
123 255 90 255 90 255 107 255 107 
255 115 255 140 255 74 255 49 255 
82 255 41 255 41 255 82 255 99 
255 49 255 57 255 66 255 82 255 
115 255 107 255 123 255 132 255 49 
255 123 255 90 255 156 255 132 255 
74 255 66 255 33 255 115 255 82 
255 82 255 90 255 82 255 74 255 
66 255 66 255 57 255 90 255 74 
255 74 255 41 255 57 255 33 255 
82 255 82 255 90 255 74 255 74 
255 90 255 33 255 41 255 49 255 
57 255 99 255 132 255 41 255 49 
255 107 255 49 255 57 255 41 255 
66 255 74 255 57 255 107 255 33 
255 99 255 90 255 66 255 41 255 
82 255 33 255 90 255 66 255 90 
255 74 255 66 255 74 255 57 255 
74 255 99 255 49 255 33 255 33 
255 107 255 90 255 66 255 49 255 
74 255 90 255 49 255 57 255 66 
255 107 255 41 255 49 255 74 255 
66 255 115 255 74 255 90 255 49 
255 66 255 74 255 107 255 99 255 
82 255 57 255 82 255 132 255 140 
255 140 255 107 255 66 255 66 255 
57 255 74 255 57 255 49 255 82 
255 41 255 74 255 41 255 82 255 
41 255 66 255 24 255 66 255 74 
255 41 255 57 255 115 255 66 255 
90 255 123 255 49 255 66 255 49 
255 140 255 90 255 66 255 90 255 
132 255 82 255 123 255 90 255 107 
255 66 255 115 255 41 255 74 255 
107 255 90 255 74 255 24 255 66 
255 99 255 66 255 74 255 107 255 
165 255 123 255 115 255 33 255 49 
255 107 255 49 255 66 255 49 255 
57 255 57 255 82 255 123 255 74 
255 49 255 107 255 115 255 49 255 
99 255 66 255 99 255 115 255 66 
255 74 255 123 255 132 255 82 255 
99 255 99 255 115 255 107 255 66 
255 90 255 132 255 115 255 90 255 
123 255 74 255 165 255 123 255 82 
255 90 255 74 255 156 255 115 255 
90 255 90 255 90 255 66 255 74 
255 99 255 90 255 49 255 74 255 
74 255 74 255 90 255 123 255 107 
255 165 255 74 255 140 255 140 255 
123 255 82 255 57 255 82 255 41 
255 99 255 140 255 107 255 99 255 
82 255 123 255 57 255 90 255 99 
255 99 255 82 255 132 255 74 255 
123 255 66 255 82 255 99 255 132 
255 115 255 82 255 74 255 90 255 
82 255 49 255 49 255 66 255 123 
255 24 255 99 255 115 255 82 255 
49 255 140 255 66 255 132 255 99 
255 74 255 66 255 99 255 99 255 
115 255 66 255 57 255 74 255 123 
255 66 255 115 255 57 255 41 255 
41 255 49 255 74 255 33 255 82 
255 115 255 123 255 115 255 99 255 
33 255 66 255 66 255 123 255 99 
255 82 255 82 255 41 255 66 255 
66 255 16 255 49 255 99 255 165 
255 66 255 74 255 57 255 123 255 
99 255 90 255 66 255 57 255 115 
255 115 255 115 255 107 255 66 255 
41 255 57 255 74 255 74 255 33 
255 123 255 99 255 74 255 41 255 
33 255 74 255 123 255 90 255 90 
255 66 255 49 255 82 255 90 255 
132 255 57 255 90 255 74 255 82 
255 57 255 148 255 99 255 74 255 
66 255 82 255 82 255 49 255 156 
255 66 255 115 255 90 255 82 255 
74 255 66 255 49 255 24 255 82 
255 33 255 90 255 115 255 74 255 
82 255 115 255 99 255 90 255 123 
255 99 255 49 255 107 255 107 255 
99 255 41 255 99 255 82 255 57 
255 82 255 99 255 140 255 74 255 
99 255 33 255 57 255 49 255 140 
255 123 255 82 255 99 255 148 255 
74 255 82 255 66 255 107 255 16 
255 82 255 99 255 140 255 82 255 
90 255 57 255 82 255 99 255 132 
255 90 255 148 255 74 255 90 255 
107 255 74 255 90 255 115 255 66 
255 41 255 107 255 82 255 57 255 
74 255 99 255 123 255 99 255 148 
255 140 255 82 255 82 255 99 255 
156 255 90 255 99 255 90 255 49 
255 33 255 66 255 49 255 99 255 
82 255 66 255 107 255 41 255 90 
255 140 255 90 255 49 255 82 255 
99 255 82 255 132 255 66 255 107 
255 90 255 90 255 74 255 57 255 
90 255 66 255 90 255 90 255 90 
255 74 255 107 255 82 255 99 255 
82 255 82 255 115 255 82 255 74 
255 99 255 99 255 49 255 90 255 
41 255 41 255 82 255 115 255 123 
255 123 255 99 255 115 255 107 255 
99 255 90 255 99 255 74 255 66 
255 49 255 99 255 82 255 74 255 
115 255 132 255 107 255 57 255 123 
255 57 255 66 255 66 255 49 255 
33 255 74 255 90 255 66 255 49 
255 82 255 107 255 82 255 57 255 
82 255 66 255 74 255 148 255 132 
255 99 255 82 255 74 255 99 255 
90 255 140 255 90 255 90 255 82 
255 74 255 41 255 99 255 107 255 
107 255 90 255 24 255 90 255 57 
255 57 255 82 255 74 255 115 255 
41 255 90 255 99 255 90 255 107 
255 123 255 66 255 123 255 140 255 
24 255 82 255 74 255 99 255 24 
255 57 255 156 255 140 255 99 255 
156 255 99 255 66 255 99 255 16 
255 16 255 74 255 90 255 99 255 
90 255 49 255 74 255 74 255 107 
255 99 255 99 255 57 255 41 255 
132 255 107 255 74 255 49 255 57 
255 49 255 33 255 132 255 123 255 
156 255 74 255 74 255 24 255 74 
255 107 255 90 255 57 255 57 255 
99 255 57 255 90 255 123 255 82 
255 99 255 49 255 66 255 90 255 
49 255 74 255 49 255 57 255 99 
255 82 255 82 255 115 255 41 255 
173 255 107 255 123 255 107 255 107 
255 33 255 33 255 24 255 82 255 
82 255 74 255 107 255 140 255 132 
255 99 255 140 255 57 255 90 255 
107 255 123 255 99 255 66 255 41 
255 82 255 115 255 66 255 66 255 
41 255 99 255 82 255 57 255 115 
255 49 255 33 255 90 255 74 255 
57 255 66 255 49 255 140 255 115 
255 90 255 33 255 33 255 57 255 
74 255 107 255 66 255 66 255 82 
255 99 255 90 255 24 255 57 255 
99 255 41 255 49 255 57 255 132 
255 24 255 82 255 115 255 140 255 
82 255 123 255 115 255 82 255 107 
255 156 255 132 255 90 255 41 255 
49 255 74 255 90 255 140 255 90 
255 66 255 99 255 33 255 148 255 
66 255 49 255 90 255 123 255 33 
255 49 255 99 255 115 255 57 255 
74 255 49 255 57 255 99 255 99 
255 66 255 57 255 57 255 66 255 
115 255 90 255 49 255 66 255 41 
255 57 255 140 255 140 255 41 255 
90 255 66 255 107 255 132 255 57 
255 33 255 123 255 82 255 115 255 
107 255 99 255 74 255 41 255 82 
255 49 255 115 255 57 255 82 255 
90 255 24 255 16 255 115 255 99 
255 66 255 57 255 33 255 49 255 
115 255 66 255 49 255 123 255 82 
255 99 255 33 255 82 255 156 255 
57 255 148 255 107 255 140 255 74 
255 90 255 24 255 16 255 74 255 
99 255 74 255 90 255 107 255 123 
255 115 255 99 255 82 255 57 255 
82 255 57 255 99 255 99 255 90 
255 82 255 41 255 16 255 74 255 
156 255 49 255 82 255 57 255 74 
255 33 255 99 255 82 255 115 255 
66 255 148 255 156 255 74 255 99 
255 66 255 74 255 57 255 82 255 
90 255 107 255 82 255 49 255 99 
255 99 255 41 255 82 255 82 255 
107 255 49 255 132 255 107 255 66 
255 99 255 57 255 49 255 41 255 
66 255 90 255 33 255 74 255 107 
255 123 255 74 255 99 255 99 255 
74 255 140 255 132 255 99 255 41 
255 41 255 57 255 66 255 99 255 
33 255 74 255 66 255 107 255 66 
255 99 255 99 255 90 255 74 255 
115 255 90 255 99 255 99 255 57 
255 123 255 41 255 74 255 74 255 
57 255 198 255 24 255 148 255 66 
255 41 255 57 255 57 255 82 255 
82 255 74 255 57 255 33 255 24 