# vtk DataFile Version 3.0
vtk output
ASCII
DATASET STRUCTURED_POINTS
DIMENSIONS 129 129 1
SPACING 1 1 1
ORIGIN 0 0 0
CELL_DATA 16384
FIELD FieldData 1
tex 2 16384 float
0.426197 1 0.426197 1 0 1 0 1 0 
1 0 1 0 1 0 1 0 1 
0 1 0.294037 1 0.294037 1 0.479374 1 0.479374 
1 0.503617 1 0.503617 1 0 1 0 1 
0 1 0 1 0.36911 1 0.36911 1 0 
1 0 1 0 1 0 1 0 1 
0 1 0.323754 1 0.323754 1 0 1 0 
1 0 1 0 1 0 1 0 1 
0 1 0 1 0.3652 1 0.3652 1 0.505963 
1 0.505963 1 0.197067 1 0.197067 1 0.403519 1 
0.403519 1 0 1 0 1 0 1 0 
1 0.228348 1 0.228348 1 0 1 0 1 
0.493451 1 0.493451 1 0.487195 1 0.487195 1 0.378495 
1 0.378495 1 0 1 0 1 0 1 
0 1 0.473118 1 0.473118 1 0 1 0 
1 0.275269 1 0.275269 1 0.32219 1 0.32219 1 
0.407429 1 0.407429 1 0 1 0 1 0 
1 0 1 0.328446 1 0.328446 1 0.445748 1 
0.445748 1 0.528641 1 0.528641 1 0.22131 1 0.22131 
1 0 1 0 1 0.47781 1 0.47781 1 
0.670968 1 0.670968 1 0 1 0 1 0 
1 0 1 0.362854 1 0.362854 1 0 1 
0 1 0 1 0 1 0 1 0 
1 0 1 0 1 0 1 0 1 
0 1 0 1 0.303421 1 0.303421 1 0.429326 
1 0.429326 1 0 1 0 1 0.587292 1 
0.587292 1 0 1 0 1 0 1 0 
1 0 1 0 1 0.402737 1 0.402737 1 
0 1 0 1 0.426197 1 0.426197 1 0 
1 0 1 0 1 0 1 0 1 
0 1 0 1 0 1 0.294037 1 0.294037 
1 0.479374 1 0.479374 1 0.503617 1 0.503617 1 
0 1 0 1 0 1 0 1 0.36911 
1 0.36911 1 0 1 0 1 0 1 
0 1 0 1 0 1 0.323754 1 0.323754 
1 0 1 0 1 0 1 0 1 
0 1 0 1 0 1 0 1 0.3652 
1 0.3652 1 0.505963 1 0.505963 1 0.197067 1 
0.197067 1 0.403519 1 0.403519 1 0 1 0 
1 0 1 0 1 0.228348 1 0.228348 1 
0 1 0 1 0.493451 1 0.493451 1 0.487195 
1 0.487195 1 0.378495 1 0.378495 1 0 1 
0 1 0 1 0 1 0.473118 1 0.473118 
1 0 1 0 1 0.275269 1 0.275269 1 
0.32219 1 0.32219 1 0.407429 1 0.407429 1 0 
1 0 1 0 1 0 1 0.328446 1 
0.328446 1 0.445748 1 0.445748 1 0.528641 1 0.528641 
1 0.22131 1 0.22131 1 0 1 0 1 
0.47781 1 0.47781 1 0.670968 1 0.670968 1 0 
1 0 1 0 1 0 1 0.362854 1 
0.362854 1 0 1 0 1 0 1 0 
1 0 1 0 1 0 1 0 1 
0 1 0 1 0 1 0 1 0.303421 
1 0.303421 1 0.429326 1 0.429326 1 0 1 
0 1 0.587292 1 0.587292 1 0 1 0 
1 0 1 0 1 0 1 0 1 
0.402737 1 0.402737 1 0 1 0 1 0 
1 0 1 0 1 0 1 0.42698 1 
0.42698 1 0 1 0 1 0 1 0 
1 0 1 0 1 0 1 0 1 
0.455914 1 0.455914 1 0 1 0 1 0 
1 0 1 0.372239 1 0.372239 1 0 1 
0 1 0.402737 1 0.402737 1 0.355034 1 0.355034 
1 0.4739 1 0.4739 1 0 1 0 1 
0 1 0 1 0.331574 1 0.331574 1 0.419941 
1 0.419941 1 0.386315 1 0.386315 1 0.44262 1 
0.44262 1 0.2174 1 0.2174 1 0.451222 1 0.451222 
1 0.387097 1 0.387097 1 0 1 0 1 
0 1 0 1 0 1 0 1 0 
1 0 1 0.539589 1 0.539589 1 0.502835 1 
0.502835 1 0 1 0 1 0.258847 1 0.258847 
1 0 1 0 1 0 1 0 1 
0 1 0 1 0 1 0 1 0 
1 0 1 0 1 0 1 0 1 
0 1 0.336266 1 0.336266 1 0.337048 1 0.337048 
1 0 1 0 1 0 1 0 1 
0 1 0 1 0.391007 1 0.391007 1 0.358162 
1 0.358162 1 0.375367 1 0.375367 1 0.380059 1 
0.380059 1 0.498143 1 0.498143 1 0.285435 1 0.285435 
1 0 1 0 1 0 1 0 1 
0.364418 1 0.364418 1 0 1 0 1 0 
1 0 1 0 1 0 1 0 1 
0 1 0 1 0 1 0 1 0 
1 0.489541 1 0.489541 1 0.35347 1 0.35347 1 
0 1 0 1 0 1 0 1 0 
1 0 1 0 1 0 1 0 1 
0 1 0.42698 1 0.42698 1 0 1 0 
1 0 1 0 1 0 1 0 1 
0 1 0 1 0.455914 1 0.455914 1 0 
1 0 1 0 1 0 1 0.372239 1 
0.372239 1 0 1 0 1 0.402737 1 0.402737 
1 0.355034 1 0.355034 1 0.4739 1 0.4739 1 
0 1 0 1 0 1 0 1 0.331574 
1 0.331574 1 0.419941 1 0.419941 1 0.386315 1 
0.386315 1 0.44262 1 0.44262 1 0.2174 1 0.2174 
1 0.451222 1 0.451222 1 0.387097 1 0.387097 1 
0 1 0 1 0 1 0 1 0 
1 0 1 0 1 0 1 0.539589 1 
0.539589 1 0.502835 1 0.502835 1 0 1 0 
1 0.258847 1 0.258847 1 0 1 0 1 
0 1 0 1 0 1 0 1 0 
1 0 1 0 1 0 1 0 1 
0 1 0 1 0 1 0.336266 1 0.336266 
1 0.337048 1 0.337048 1 0 1 0 1 
0 1 0 1 0 1 0 1 0.391007 
1 0.391007 1 0.358162 1 0.358162 1 0.375367 1 
0.375367 1 0.380059 1 0.380059 1 0.498143 1 0.498143 
1 0.285435 1 0.285435 1 0 1 0 1 
0 1 0 1 0.364418 1 0.364418 1 0 
1 0 1 0 1 0 1 0 1 
0 1 0 1 0 1 0 1 0 
1 0 1 0 1 0.489541 1 0.489541 1 
0.35347 1 0.35347 1 0 1 0 1 0 
1 0 1 0 1 0 1 0.412903 1 
0.412903 1 0.513001 1 0.513001 1 0 1 0 
1 0.343304 1 0.343304 1 0 1 0 1 
0 1 0 1 0 1 0 1 0 
1 0 1 0.383187 1 0.383187 1 0.33392 1 
0.33392 1 0.461388 1 0.461388 1 0.512219 1 0.512219 
1 0.282307 1 0.282307 1 0 1 0 1 
0.559922 1 0.559922 1 0 1 0 1 0 
1 0 1 0.529423 1 0.529423 1 0 1 
0 1 0 1 0 1 0 1 0 
1 0.376149 1 0.376149 1 0 1 0 1 
0 1 0 1 0 1 0 1 0.302639 
1 0.302639 1 0 1 0 1 0.376931 1 
0.376931 1 0.234604 1 0.234604 1 0.398045 1 0.398045 
1 0 1 0 1 0 1 0 1 
0 1 0 1 0 1 0 1 0 
1 0 1 0.356598 1 0.356598 1 0 1 
0 1 0 1 0 1 0.338612 1 0.338612 
1 0 1 0 1 0 1 0 1 
0.405083 1 0.405083 1 0 1 0 1 0 
1 0 1 0 1 0 1 0 1 
0 1 0 1 0 1 0 1 0 
1 0.347214 1 0.347214 1 0 1 0 1 
0 1 0 1 0 1 0 1 0.323754 
1 0.323754 1 0.360508 1 0.360508 1 0.518475 1 
0.518475 1 0 1 0 1 0.2565 1 0.2565 
1 0.268231 1 0.268231 1 0 1 0 1 
0.378495 1 0.378495 1 0 1 0 1 0 
1 0 1 0.565396 1 0.565396 1 0.294037 1 
0.294037 1 0.412903 1 0.412903 1 0.513001 1 0.513001 
1 0 1 0 1 0.343304 1 0.343304 1 
0 1 0 1 0 1 0 1 0 
1 0 1 0 1 0 1 0.383187 1 
0.383187 1 0.33392 1 0.33392 1 0.461388 1 0.461388 
1 0.512219 1 0.512219 1 0.282307 1 0.282307 1 
0 1 0 1 0.559922 1 0.559922 1 0 
1 0 1 0 1 0 1 0.529423 1 
0.529423 1 0 1 0 1 0 1 0 
1 0 1 0 1 0.376149 1 0.376149 1 
0 1 0 1 0 1 0 1 0 
1 0 1 0.302639 1 0.302639 1 0 1 
0 1 0.376931 1 0.376931 1 0.234604 1 0.234604 
1 0.398045 1 0.398045 1 0 1 0 1 
0 1 0 1 0 1 0 1 0 
1 0 1 0 1 0 1 0.356598 1 
0.356598 1 0 1 0 1 0 1 0 
1 0.338612 1 0.338612 1 0 1 0 1 
0 1 0 1 0.405083 1 0.405083 1 0 
1 0 1 0 1 0 1 0 1 
0 1 0 1 0 1 0 1 0 
1 0 1 0 1 0.347214 1 0.347214 1 
0 1 0 1 0 1 0 1 0 
1 0 1 0.323754 1 0.323754 1 0.360508 1 
0.360508 1 0.518475 1 0.518475 1 0 1 0 
1 0.2565 1 0.2565 1 0.268231 1 0.268231 1 
0 1 0 1 0.378495 1 0.378495 1 0 
1 0 1 0 1 0 1 0.565396 1 
0.565396 1 0.294037 1 0.294037 1 0.390225 1 0.390225 
1 0 1 0 1 0.396481 1 0.396481 1 
0.432454 1 0.432454 1 0 1 0 1 0.365982 
1 0.365982 1 0.47781 1 0.47781 1 0.509091 1 
0.509091 1 0.592766 1 0.592766 1 0.232258 1 0.232258 
1 0.310459 1 0.310459 1 0 1 0 1 
0 1 0 1 0 1 0 1 0 
1 0 1 0 1 0 1 0.496579 1 
0.496579 1 0.533333 1 0.533333 1 0 1 0 
1 0.326882 1 0.326882 1 0.435582 1 0.435582 1 
0.367546 1 0.367546 1 0.513001 1 0.513001 1 0.261193 
1 0.261193 1 0.496579 1 0.496579 1 0 1 
0 1 0.300293 1 0.300293 1 0 1 0 
1 0 1 0 1 0 1 0 1 
0.58651 1 0.58651 1 0 1 0 1 0.412903 
1 0.412903 1 0.292473 1 0.292473 1 0 1 
0 1 0.33001 1 0.33001 1 0.347214 1 0.347214 
1 0.487977 1 0.487977 1 0 1 0 1 
0 1 0 1 0 1 0 1 0.312805 
1 0.312805 1 0 1 0 1 0 1 
0 1 0 1 0 1 0 1 0 
1 0.33783 1 0.33783 1 0 1 0 1 
0 1 0 1 0.342522 1 0.342522 1 0 
1 0 1 0 1 0 1 0.197067 1 
0.197067 1 0 1 0 1 0.403519 1 0.403519 
1 0.488759 1 0.488759 1 0 1 0 1 
0 1 0 1 0.443402 1 0.443402 1 0.503617 
1 0.503617 1 0 1 0 1 0 1 
0 1 0.385533 1 0.385533 1 0.337048 1 0.337048 
1 0.390225 1 0.390225 1 0 1 0 1 
0.396481 1 0.396481 1 0.432454 1 0.432454 1 0 
1 0 1 0.365982 1 0.365982 1 0.47781 1 
0.47781 1 0.509091 1 0.509091 1 0.592766 1 0.592766 
1 0.232258 1 0.232258 1 0.310459 1 0.310459 1 
0 1 0 1 0 1 0 1 0 
1 0 1 0 1 0 1 0 1 
0 1 0.496579 1 0.496579 1 0.533333 1 0.533333 
1 0 1 0 1 0.326882 1 0.326882 1 
0.435582 1 0.435582 1 0.367546 1 0.367546 1 0.513001 
1 0.513001 1 0.261193 1 0.261193 1 0.496579 1 
0.496579 1 0 1 0 1 0.300293 1 0.300293 
1 0 1 0 1 0 1 0 1 
0 1 0 1 0.58651 1 0.58651 1 0 
1 0 1 0.412903 1 0.412903 1 0.292473 1 
0.292473 1 0 1 0 1 0.33001 1 0.33001 
1 0.347214 1 0.347214 1 0.487977 1 0.487977 1 
0 1 0 1 0 1 0 1 0 
1 0 1 0.312805 1 0.312805 1 0 1 
0 1 0 1 0 1 0 1 0 
1 0 1 0 1 0.33783 1 0.33783 1 
0 1 0 1 0 1 0 1 0.342522 
1 0.342522 1 0 1 0 1 0 1 
0 1 0.197067 1 0.197067 1 0 1 0 
1 0.403519 1 0.403519 1 0.488759 1 0.488759 1 
0 1 0 1 0 1 0 1 0.443402 
1 0.443402 1 0.503617 1 0.503617 1 0 1 
0 1 0 1 0 1 0.385533 1 0.385533 
1 0.337048 1 0.337048 1 0 1 0 1 
0.328446 1 0.328446 1 0.689736 1 0.689736 1 0.491105 
1 0.491105 1 0 1 0 1 0 1 
0 1 0.235386 1 0.235386 1 0.317498 1 0.317498 
1 0 1 0 1 0 1 0 1 
0 1 0 1 0 1 0 1 0.456696 
1 0.456696 1 0.530987 1 0.530987 1 0 1 
0 1 0 1 0 1 0.36911 1 0.36911 
1 0 1 0 1 0.505963 1 0.505963 1 
0.59042 1 0.59042 1 0 1 0 1 0 
1 0 1 0 1 0 1 0 1 
0 1 0 1 0 1 0.59433 1 0.59433 
1 0 1 0 1 0.238514 1 0.238514 1 
0 1 0 1 0 1 0 1 0.378495 
1 0.378495 1 0 1 0 1 0.371457 1 
0.371457 1 0 1 0 1 0.424633 1 0.424633 
1 0 1 0 1 0 1 0 1 
0 1 0 1 0 1 0 1 0.376931 
1 0.376931 1 0.231476 1 0.231476 1 0.320626 1 
0.320626 1 0.559922 1 0.559922 1 0.367546 1 0.367546 
1 0.513001 1 0.513001 1 0.395699 1 0.395699 1 
0 1 0 1 0.412903 1 0.412903 1 0 
1 0 1 0 1 0 1 0.136852 1 
0.136852 1 0 1 0 1 0.313588 1 0.313588 
1 0 1 0 1 0.358162 1 0.358162 1 
0.45044 1 0.45044 1 0 1 0 1 0.548974 
1 0.548974 1 0 1 0 1 0 1 
0 1 0 1 0 1 0.422287 1 0.422287 
1 0.388661 1 0.388661 1 0.336266 1 0.336266 1 
0 1 0 1 0.328446 1 0.328446 1 0.689736 
1 0.689736 1 0.491105 1 0.491105 1 0 1 
0 1 0 1 0 1 0.235386 1 0.235386 
1 0.317498 1 0.317498 1 0 1 0 1 
0 1 0 1 0 1 0 1 0 
1 0 1 0.456696 1 0.456696 1 0.530987 1 
0.530987 1 0 1 0 1 0 1 0 
1 0.36911 1 0.36911 1 0 1 0 1 
0.505963 1 0.505963 1 0.59042 1 0.59042 1 0 
1 0 1 0 1 0 1 0 1 
0 1 0 1 0 1 0 1 0 
1 0.59433 1 0.59433 1 0 1 0 1 
0.238514 1 0.238514 1 0 1 0 1 0 
1 0 1 0.378495 1 0.378495 1 0 1 
0 1 0.371457 1 0.371457 1 0 1 0 
1 0.424633 1 0.424633 1 0 1 0 1 
0 1 0 1 0 1 0 1 0 
1 0 1 0.376931 1 0.376931 1 0.231476 1 
0.231476 1 0.320626 1 0.320626 1 0.559922 1 0.559922 
1 0.367546 1 0.367546 1 0.513001 1 0.513001 1 
0.395699 1 0.395699 1 0 1 0 1 0.412903 
1 0.412903 1 0 1 0 1 0 1 
0 1 0.136852 1 0.136852 1 0 1 0 
1 0.313588 1 0.313588 1 0 1 0 1 
0.358162 1 0.358162 1 0.45044 1 0.45044 1 0 
1 0 1 0.548974 1 0.548974 1 0 1 
0 1 0 1 0 1 0 1 0 
1 0.422287 1 0.422287 1 0.388661 1 0.388661 1 
0.336266 1 0.336266 1 0.388661 1 0.388661 1 0 
1 0 1 0 1 0 1 0 1 
0 1 0 1 0 1 0.297947 1 0.297947 
1 0 1 0 1 0 1 0 1 
0 1 0 1 0 1 0 1 0 
1 0 1 0 1 0 1 0 1 
0 1 0 1 0 1 0 1 0 
1 0 1 0 1 0 1 0 1 
0 1 0 1 0.271359 1 0.271359 1 0.359726 
1 0.359726 1 0 1 0 1 0.243206 1 
0.243206 1 0.441838 1 0.441838 1 0.342522 1 0.342522 
1 0 1 0 1 0.473118 1 0.473118 1 
0 1 0 1 0 1 0 1 0 
1 0 1 0.412903 1 0.412903 1 0 1 
0 1 0.227566 1 0.227566 1 0.374585 1 0.374585 
1 0 1 0 1 0.278397 1 0.278397 1 
0 1 0 1 0 1 0 1 0 
1 0 1 0.416813 1 0.416813 1 0 1 
0 1 0 1 0 1 0.147801 1 0.147801 
1 0 1 0 1 0.232258 1 0.232258 1 
0 1 0 1 0.412121 1 0.412121 1 0 
1 0 1 0.140762 1 0.140762 1 0.228348 1 
0.228348 1 0 1 0 1 0.297947 1 0.297947 
1 0 1 0 1 0 1 0 1 
0.289345 1 0.289345 1 0.488759 1 0.488759 1 0 
1 0 1 0.343304 1 0.343304 1 0.423851 1 
0.423851 1 0.512219 1 0.512219 1 0.386315 1 0.386315 
1 0 1 0 1 0.354252 1 0.354252 1 
0 1 0 1 0 1 0 1 0.388661 
1 0.388661 1 0 1 0 1 0 1 
0 1 0 1 0 1 0 1 0 
1 0.297947 1 0.297947 1 0 1 0 1 
0 1 0 1 0 1 0 1 0 
1 0 1 0 1 0 1 0 1 
0 1 0 1 0 1 0 1 0 
1 0 1 0 1 0 1 0 1 
0 1 0 1 0 1 0 1 0.271359 
1 0.271359 1 0.359726 1 0.359726 1 0 1 
0 1 0.243206 1 0.243206 1 0.441838 1 0.441838 
1 0.342522 1 0.342522 1 0 1 0 1 
0.473118 1 0.473118 1 0 1 0 1 0 
1 0 1 0 1 0 1 0.412903 1 
0.412903 1 0 1 0 1 0.227566 1 0.227566 
1 0.374585 1 0.374585 1 0 1 0 1 
0.278397 1 0.278397 1 0 1 0 1 0 
1 0 1 0 1 0 1 0.416813 1 
0.416813 1 0 1 0 1 0 1 0 
1 0.147801 1 0.147801 1 0 1 0 1 
0.232258 1 0.232258 1 0 1 0 1 0.412121 
1 0.412121 1 0 1 0 1 0.140762 1 
0.140762 1 0.228348 1 0.228348 1 0 1 0 
1 0.297947 1 0.297947 1 0 1 0 1 
0 1 0 1 0.289345 1 0.289345 1 0.488759 
1 0.488759 1 0 1 0 1 0.343304 1 
0.343304 1 0.423851 1 0.423851 1 0.512219 1 0.512219 
1 0.386315 1 0.386315 1 0 1 0 1 
0.354252 1 0.354252 1 0 1 0 1 0 
1 0 1 0 1 0 1 0 1 
0 1 0 1 0 1 0.355034 1 0.355034 
1 0.304203 1 0.304203 1 0.294819 1 0.294819 1 
0 1 0 1 0 1 0 1 0.343304 
1 0.343304 1 0 1 0 1 0 1 
0 1 0 1 0 1 0 1 0 
1 0 1 0 1 0 1 0 1 
0.374585 1 0.374585 1 0.308895 1 0.308895 1 0.238514 
1 0.238514 1 0 1 0 1 0 1 
0 1 0.290127 1 0.290127 1 0 1 0 
1 0.414467 1 0.414467 1 0 1 0 1 
0 1 0 1 0 1 0 1 0 
1 0 1 0.277615 1 0.277615 1 0 1 
0 1 0 1 0 1 0 1 0 
1 0 1 0 1 0.383969 1 0.383969 1 
0 1 0 1 0 1 0 1 0 
1 0 1 0 1 0 1 0 1 
0 1 0 1 0 1 0 1 0 
1 0 1 0 1 0.568524 1 0.568524 1 
0.425415 1 0.425415 1 0.402737 1 0.402737 1 0.262757 
1 0.262757 1 0 1 0 1 0 1 
0 1 0.430108 1 0.430108 1 0 1 0 
1 0 1 0 1 0.419159 1 0.419159 1 
0 1 0 1 0 1 0 1 0 
1 0 1 0.432454 1 0.432454 1 0.396481 1 
0.396481 1 0.342522 1 0.342522 1 0 1 0 
1 0 1 0 1 0 1 0 1 
0.396481 1 0.396481 1 0 1 0 1 0 
1 0 1 0.380841 1 0.380841 1 0 1 
0 1 0 1 0 1 0 1 0 
1 0.355034 1 0.355034 1 0.304203 1 0.304203 1 
0.294819 1 0.294819 1 0 1 0 1 0 
1 0 1 0.343304 1 0.343304 1 0 1 
0 1 0 1 0 1 0 1 0 
1 0 1 0 1 0 1 0 1 
0 1 0 1 0.374585 1 0.374585 1 0.308895 
1 0.308895 1 0.238514 1 0.238514 1 0 1 
0 1 0 1 0 1 0.290127 1 0.290127 
1 0 1 0 1 0.414467 1 0.414467 1 
0 1 0 1 0 1 0 1 0 
1 0 1 0 1 0 1 0.277615 1 
0.277615 1 0 1 0 1 0 1 0 
1 0 1 0 1 0 1 0 1 
0.383969 1 0.383969 1 0 1 0 1 0 
1 0 1 0 1 0 1 0 1 
0 1 0 1 0 1 0 1 0 
1 0 1 0 1 0 1 0 1 
0.568524 1 0.568524 1 0.425415 1 0.425415 1 0.402737 
1 0.402737 1 0.262757 1 0.262757 1 0 1 
0 1 0 1 0 1 0.430108 1 0.430108 
1 0 1 0 1 0 1 0 1 
0.419159 1 0.419159 1 0 1 0 1 0 
1 0 1 0 1 0 1 0.432454 1 
0.432454 1 0.396481 1 0.396481 1 0.342522 1 0.342522 
1 0 1 0 1 0 1 0 1 
0 1 0 1 0.396481 1 0.396481 1 0 
1 0 1 0 1 0 1 0.380841 1 
0.380841 1 0.36911 1 0.36911 1 0 1 0 
1 0.396481 1 0.396481 1 0.43089 1 0.43089 1 
0 1 0 1 0.268231 1 0.268231 1 0.416813 
1 0.416813 1 0 1 0 1 0 1 
0 1 0 1 0 1 0.527859 1 0.527859 
1 0.383187 1 0.383187 1 0 1 0 1 
0.395699 1 0.395699 1 0.299511 1 0.299511 1 0 
1 0 1 0 1 0 1 0.530987 1 
0.530987 1 0 1 0 1 0 1 0 
1 0 1 0 1 0 1 0 1 
0 1 0 1 0 1 0 1 0.624047 
1 0.624047 1 0 1 0 1 0 1 
0 1 0.303421 1 0.303421 1 0 1 0 
1 0.622483 1 0.622483 1 0 1 0 1 
0.157967 1 0.157967 1 0 1 0 1 0 
1 0 1 0 1 0 1 0.487977 1 
0.487977 1 0.258847 1 0.258847 1 0 1 0 
1 0 1 0 1 0.441056 1 0.441056 1 
0 1 0 1 0.32219 1 0.32219 1 0.445748 
1 0.445748 1 0.371457 1 0.371457 1 0.207234 1 
0.207234 1 0 1 0 1 0 1 0 
1 0 1 0 1 0.269795 1 0.269795 1 
0.348778 1 0.348778 1 0.359726 1 0.359726 1 0 
1 0 1 0 1 0 1 0 1 
0 1 0.469208 1 0.469208 1 0 1 0 
1 0.386315 1 0.386315 1 0 1 0 1 
0 1 0 1 0.46999 1 0.46999 1 0 
1 0 1 0.483284 1 0.483284 1 0 1 
0 1 0.363636 1 0.363636 1 0.36911 1 0.36911 
1 0 1 0 1 0.396481 1 0.396481 1 
0.43089 1 0.43089 1 0 1 0 1 0.268231 
1 0.268231 1 0.416813 1 0.416813 1 0 1 
0 1 0 1 0 1 0 1 0 
1 0.527859 1 0.527859 1 0.383187 1 0.383187 1 
0 1 0 1 0.395699 1 0.395699 1 0.299511 
1 0.299511 1 0 1 0 1 0 1 
0 1 0.530987 1 0.530987 1 0 1 0 
1 0 1 0 1 0 1 0 1 
0 1 0 1 0 1 0 1 0 
1 0 1 0.624047 1 0.624047 1 0 1 
0 1 0 1 0 1 0.303421 1 0.303421 
1 0 1 0 1 0.622483 1 0.622483 1 
0 1 0 1 0.157967 1 0.157967 1 0 
1 0 1 0 1 0 1 0 1 
0 1 0.487977 1 0.487977 1 0.258847 1 0.258847 
1 0 1 0 1 0 1 0 1 
0.441056 1 0.441056 1 0 1 0 1 0.32219 
1 0.32219 1 0.445748 1 0.445748 1 0.371457 1 
0.371457 1 0.207234 1 0.207234 1 0 1 0 
1 0 1 0 1 0 1 0 1 
0.269795 1 0.269795 1 0.348778 1 0.348778 1 0.359726 
1 0.359726 1 0 1 0 1 0 1 
0 1 0 1 0 1 0.469208 1 0.469208 
1 0 1 0 1 0.386315 1 0.386315 1 
0 1 0 1 0 1 0 1 0.46999 
1 0.46999 1 0 1 0 1 0.483284 1 
0.483284 1 0 1 0 1 0.363636 1 0.363636 
1 0.271359 1 0.271359 1 0 1 0 1 
0.197067 1 0.197067 1 0.181427 1 0.181427 1 0 
1 0 1 0 1 0 1 0 1 
0 1 0 1 0 1 0.435582 1 0.435582 
1 0 1 0 1 0 1 0 1 
0.348778 1 0.348778 1 0 1 0 1 0 
1 0 1 0 1 0 1 0.365982 1 
0.365982 1 0 1 0 1 0 1 0 
1 0 1 0 1 0.198631 1 0.198631 1 
0.453568 1 0.453568 1 0 1 0 1 0 
1 0 1 0 1 0 1 0 1 
0 1 0 1 0 1 0 1 0 
1 0 1 0 1 0.293255 1 0.293255 1 
0 1 0 1 0 1 0 1 0 
1 0 1 0.399609 1 0.399609 1 0.564614 1 
0.564614 1 0.506745 1 0.506745 1 0.190029 1 0.190029 
1 0.251808 1 0.251808 1 0.388661 1 0.388661 1 
0 1 0 1 0.471554 1 0.471554 1 0.425415 
1 0.425415 1 0 1 0 1 0 1 
0 1 0 1 0 1 0 1 0 
1 0 1 0 1 0 1 0 1 
0 1 0 1 0 1 0 1 0 
1 0 1 0 1 0 1 0 1 
0 1 0.636559 1 0.636559 1 0 1 0 
1 0.356598 1 0.356598 1 0.153275 1 0.153275 1 
0 1 0 1 0.266667 1 0.266667 1 0 
1 0 1 0 1 0 1 0 1 
0 1 0 1 0 1 0 1 0 
1 0.452786 1 0.452786 1 0.271359 1 0.271359 1 
0 1 0 1 0.197067 1 0.197067 1 0.181427 
1 0.181427 1 0 1 0 1 0 1 
0 1 0 1 0 1 0 1 0 
1 0.435582 1 0.435582 1 0 1 0 1 
0 1 0 1 0.348778 1 0.348778 1 0 
1 0 1 0 1 0 1 0 1 
0 1 0.365982 1 0.365982 1 0 1 0 
1 0 1 0 1 0 1 0 1 
0.198631 1 0.198631 1 0.453568 1 0.453568 1 0 
1 0 1 0 1 0 1 0 1 
0 1 0 1 0 1 0 1 0 
1 0 1 0 1 0 1 0 1 
0.293255 1 0.293255 1 0 1 0 1 0 
1 0 1 0 1 0 1 0.399609 1 
0.399609 1 0.564614 1 0.564614 1 0.506745 1 0.506745 
1 0.190029 1 0.190029 1 0.251808 1 0.251808 1 
0.388661 1 0.388661 1 0 1 0 1 0.471554 
1 0.471554 1 0.425415 1 0.425415 1 0 1 
0 1 0 1 0 1 0 1 0 
1 0 1 0 1 0 1 0 1 
0 1 0 1 0 1 0 1 0 
1 0 1 0 1 0 1 0 1 
0 1 0 1 0 1 0.636559 1 0.636559 
1 0 1 0 1 0.356598 1 0.356598 1 
0.153275 1 0.153275 1 0 1 0 1 0.266667 
1 0.266667 1 0 1 0 1 0 1 
0 1 0 1 0 1 0 1 0 
1 0 1 0 1 0.452786 1 0.452786 1 
0 1 0 1 0 1 0 1 0 
1 0 1 0.453568 1 0.453568 1 0 1 
0 1 0 1 0 1 0.174389 1 0.174389 
1 0 1 0 1 0.218182 1 0.218182 1 
0.290909 1 0.290909 1 0 1 0 1 0.65611 
1 0.65611 1 0 1 0 1 0 1 
0 1 0 1 0 1 0 1 0 
1 0.335484 1 0.335484 1 0.055523 1 0.055523 1 
0.504399 1 0.504399 1 0 1 0 1 0.467644 
1 0.467644 1 0.572434 1 0.572434 1 0 1 
0 1 0 1 0 1 0 1 0 
1 0.589638 1 0.589638 1 0 1 0 1 
0 1 0 1 0.202542 1 0.202542 1 0 
1 0 1 0 1 0 1 0 1 
0 1 0.557576 1 0.557576 1 0.433236 1 0.433236 
1 0 1 0 1 0 1 0 1 
0.426197 1 0.426197 1 0 1 0 1 0 
1 0 1 0 1 0 1 0 1 
0 1 0 1 0 1 0.300293 1 0.300293 
1 0.366764 1 0.366764 1 0 1 0 1 
0 1 0 1 0 1 0 1 0 
1 0 1 0.433236 1 0.433236 1 0.410557 1 
0.410557 1 0.371457 1 0.371457 1 0 1 0 
1 0 1 0 1 0 1 0 1 
0 1 0 1 0 1 0 1 0.44653 
1 0.44653 1 0.575562 1 0.575562 1 0.296383 1 
0.296383 1 0.484848 1 0.484848 1 0 1 0 
1 0 1 0 1 0.59824 1 0.59824 1 
0.288563 1 0.288563 1 0 1 0 1 0 
1 0 1 0 1 0 1 0.453568 1 
0.453568 1 0 1 0 1 0 1 0 
1 0.174389 1 0.174389 1 0 1 0 1 
0.218182 1 0.218182 1 0.290909 1 0.290909 1 0 
1 0 1 0.65611 1 0.65611 1 0 1 
0 1 0 1 0 1 0 1 0 
1 0 1 0 1 0.335484 1 0.335484 1 
0.055523 1 0.055523 1 0.504399 1 0.504399 1 0 
1 0 1 0.467644 1 0.467644 1 0.572434 1 
0.572434 1 0 1 0 1 0 1 0 
1 0 1 0 1 0.589638 1 0.589638 1 
0 1 0 1 0 1 0 1 0.202542 
1 0.202542 1 0 1 0 1 0 1 
0 1 0 1 0 1 0.557576 1 0.557576 
1 0.433236 1 0.433236 1 0 1 0 1 
0 1 0 1 0.426197 1 0.426197 1 0 
1 0 1 0 1 0 1 0 1 
0 1 0 1 0 1 0 1 0 
1 0.300293 1 0.300293 1 0.366764 1 0.366764 1 
0 1 0 1 0 1 0 1 0 
1 0 1 0 1 0 1 0.433236 1 
0.433236 1 0.410557 1 0.410557 1 0.371457 1 0.371457 
1 0 1 0 1 0 1 0 1 
0 1 0 1 0 1 0 1 0 
1 0 1 0.44653 1 0.44653 1 0.575562 1 
0.575562 1 0.296383 1 0.296383 1 0.484848 1 0.484848 
1 0 1 0 1 0 1 0 1 
0.59824 1 0.59824 1 0.288563 1 0.288563 1 0 
1 0 1 0.631085 1 0.631085 1 0.386315 1 
0.386315 1 0.8 1 0.8 1 0 1 0 
1 0.391789 1 0.391789 1 0 1 0 1 
0.518475 1 0.518475 1 0.436364 1 0.436364 1 0 
1 0 1 0 1 0 1 0 1 
0 1 0 1 0 1 0 1 0 
1 0 1 0 1 0 1 0 1 
0.290909 1 0.290909 1 0.392571 1 0.392571 1 0 
1 0 1 0.403519 1 0.403519 1 0.538025 1 
0.538025 1 0.335484 1 0.335484 1 0 1 0 
1 0 1 0 1 0.366764 1 0.366764 1 
0 1 0 1 0 1 0 1 0 
1 0 1 0.397263 1 0.397263 1 0 1 
0 1 0 1 0 1 0.717107 1 0.717107 
1 0 1 0 1 0 1 0 1 
0.226784 1 0.226784 1 0.194721 1 0.194721 1 0.219746 
1 0.219746 1 0 1 0 1 0.511437 1 
0.511437 1 0.312023 1 0.312023 1 0.165787 1 0.165787 
1 0 1 0 1 0 1 0 1 
0.500489 1 0.500489 1 0.370674 1 0.370674 1 0.548974 
1 0.548974 1 0.439492 1 0.439492 1 0 1 
0 1 0 1 0 1 0 1 0 
1 0.487977 1 0.487977 1 0.34956 1 0.34956 1 
0 1 0 1 0 1 0 1 0.254936 
1 0.254936 1 0.632649 1 0.632649 1 0 1 
0 1 0 1 0 1 0.431672 1 0.431672 
1 0.529423 1 0.529423 1 0 1 0 1 
0.493451 1 0.493451 1 0.328446 1 0.328446 1 0 
1 0 1 0 1 0 1 0.631085 1 
0.631085 1 0.386315 1 0.386315 1 0.8 1 0.8 
1 0 1 0 1 0.391789 1 0.391789 1 
0 1 0 1 0.518475 1 0.518475 1 0.436364 
1 0.436364 1 0 1 0 1 0 1 
0 1 0 1 0 1 0 1 0 
1 0 1 0 1 0 1 0 1 
0 1 0 1 0.290909 1 0.290909 1 0.392571 
1 0.392571 1 0 1 0 1 0.403519 1 
0.403519 1 0.538025 1 0.538025 1 0.335484 1 0.335484 
1 0 1 0 1 0 1 0 1 
0.366764 1 0.366764 1 0 1 0 1 0 
1 0 1 0 1 0 1 0.397263 1 
0.397263 1 0 1 0 1 0 1 0 
1 0.717107 1 0.717107 1 0 1 0 1 
0 1 0 1 0.226784 1 0.226784 1 0.194721 
1 0.194721 1 0.219746 1 0.219746 1 0 1 
0 1 0.511437 1 0.511437 1 0.312023 1 0.312023 
1 0.165787 1 0.165787 1 0 1 0 1 
0 1 0 1 0.500489 1 0.500489 1 0.370674 
1 0.370674 1 0.548974 1 0.548974 1 0.439492 1 
0.439492 1 0 1 0 1 0 1 0 
1 0 1 0 1 0.487977 1 0.487977 1 
0.34956 1 0.34956 1 0 1 0 1 0 
1 0 1 0.254936 1 0.254936 1 0.632649 1 
0.632649 1 0 1 0 1 0 1 0 
1 0.431672 1 0.431672 1 0.529423 1 0.529423 1 
0 1 0 1 0.493451 1 0.493451 1 0.328446 
1 0.328446 1 0 1 0 1 0 1 
0 1 0 1 0 1 0.267449 1 0.267449 
1 0 1 0 1 0 1 0 1 
0 1 0 1 0 1 0 1 0 
1 0 1 0 1 0 1 0 1 
0 1 0 1 0 1 0.172043 1 0.172043 
1 0.395699 1 0.395699 1 0.340958 1 0.340958 1 
0.470772 1 0.470772 1 0.448876 1 0.448876 1 0 
1 0 1 0 1 0 1 0.340958 1 
0.340958 1 0.337048 1 0.337048 1 0 1 0 
1 0 1 0 1 0 1 0 1 
0.46217 1 0.46217 1 0 1 0 1 0 
1 0 1 0.419159 1 0.419159 1 0 1 
0 1 0.365982 1 0.365982 1 0 1 0 
1 0.567742 1 0.567742 1 0 1 0 1 
0 1 0 1 0.269795 1 0.269795 1 0.415249 
1 0.415249 1 0.355034 1 0.355034 1 0.581818 1 
0.581818 1 0.376149 1 0.376149 1 0 1 0 
1 0 1 0 1 0 1 0 1 
0.405865 1 0.405865 1 0 1 0 1 0.57478 
1 0.57478 1 0 1 0 1 0.444966 1 
0.444966 1 0 1 0 1 0.34956 1 0.34956 
1 0 1 0 1 0.36911 1 0.36911 1 
0 1 0 1 0 1 0 1 0 
1 0 1 0.343304 1 0.343304 1 0 1 
0 1 0 1 0 1 0.533333 1 0.533333 
1 0 1 0 1 0 1 0 1 
0 1 0 1 0 1 0 1 0.373021 
1 0.373021 1 0 1 0 1 0 1 
0 1 0 1 0 1 0 1 0 
1 0.267449 1 0.267449 1 0 1 0 1 
0 1 0 1 0 1 0 1 0 
1 0 1 0 1 0 1 0 1 
0 1 0 1 0 1 0 1 0 
1 0.172043 1 0.172043 1 0.395699 1 0.395699 1 
0.340958 1 0.340958 1 0.470772 1 0.470772 1 0.448876 
1 0.448876 1 0 1 0 1 0 1 
0 1 0.340958 1 0.340958 1 0.337048 1 0.337048 
1 0 1 0 1 0 1 0 1 
0 1 0 1 0.46217 1 0.46217 1 0 
1 0 1 0 1 0 1 0.419159 1 
0.419159 1 0 1 0 1 0.365982 1 0.365982 
1 0 1 0 1 0.567742 1 0.567742 1 
0 1 0 1 0 1 0 1 0.269795 
1 0.269795 1 0.415249 1 0.415249 1 0.355034 1 
0.355034 1 0.581818 1 0.581818 1 0.376149 1 0.376149 
1 0 1 0 1 0 1 0 1 
0 1 0 1 0.405865 1 0.405865 1 0 
1 0 1 0.57478 1 0.57478 1 0 1 
0 1 0.444966 1 0.444966 1 0 1 0 
1 0.34956 1 0.34956 1 0 1 0 1 
0.36911 1 0.36911 1 0 1 0 1 0 
1 0 1 0 1 0 1 0.343304 1 
0.343304 1 0 1 0 1 0 1 0 
1 0.533333 1 0.533333 1 0 1 0 1 
0 1 0 1 0 1 0 1 0 
1 0 1 0.373021 1 0.373021 1 0 1 
0 1 0 1 0 1 0 1 0 
1 0.443402 1 0.443402 1 0 1 0 1 
0 1 0 1 0 1 0 1 0.516129 
1 0.516129 1 0.193157 1 0.193157 1 0 1 
0 1 0 1 0 1 0.327664 1 0.327664 
1 0 1 0 1 0 1 0 1 
0 1 0 1 0 1 0 1 0 
1 0 1 0 1 0 1 0.367546 1 
0.367546 1 0 1 0 1 0 1 0 
1 0.746041 1 0.746041 1 0 1 0 1 
0 1 0 1 0.475464 1 0.475464 1 0.324536 
1 0.324536 1 0.287781 1 0.287781 1 0.468426 1 
0.468426 1 0.351124 1 0.351124 1 0 1 0 
1 0.441838 1 0.441838 1 0 1 0 1 
0.359726 1 0.359726 1 0 1 0 1 0.441838 
1 0.441838 1 0 1 0 1 0.436364 1 
0.436364 1 0.344086 1 0.344086 1 0 1 0 
1 0.296383 1 0.296383 1 0 1 0 1 
0.385533 1 0.385533 1 0 1 0 1 0.409775 
1 0.409775 1 0.334702 1 0.334702 1 0.44262 1 
0.44262 1 0 1 0 1 0 1 0 
1 0.310459 1 0.310459 1 0.380841 1 0.380841 1 
0.492669 1 0.492669 1 0 1 0 1 0.340176 
1 0.340176 1 0.35347 1 0.35347 1 0 1 
0 1 0 1 0 1 0 1 0 
1 0 1 0 1 0 1 0 1 
0.403519 1 0.403519 1 0.147019 1 0.147019 1 0.316716 
1 0.316716 1 0.399609 1 0.399609 1 0.512219 1 
0.512219 1 0.585728 1 0.585728 1 0.468426 1 0.468426 
1 0 1 0 1 0.443402 1 0.443402 1 
0 1 0 1 0 1 0 1 0 
1 0 1 0.516129 1 0.516129 1 0.193157 1 
0.193157 1 0 1 0 1 0 1 0 
1 0.327664 1 0.327664 1 0 1 0 1 
0 1 0 1 0 1 0 1 0 
1 0 1 0 1 0 1 0 1 
0 1 0.367546 1 0.367546 1 0 1 0 
1 0 1 0 1 0.746041 1 0.746041 1 
0 1 0 1 0 1 0 1 0.475464 
1 0.475464 1 0.324536 1 0.324536 1 0.287781 1 
0.287781 1 0.468426 1 0.468426 1 0.351124 1 0.351124 
1 0 1 0 1 0.441838 1 0.441838 1 
0 1 0 1 0.359726 1 0.359726 1 0 
1 0 1 0.441838 1 0.441838 1 0 1 
0 1 0.436364 1 0.436364 1 0.344086 1 0.344086 
1 0 1 0 1 0.296383 1 0.296383 1 
0 1 0 1 0.385533 1 0.385533 1 0 
1 0 1 0.409775 1 0.409775 1 0.334702 1 
0.334702 1 0.44262 1 0.44262 1 0 1 0 
1 0 1 0 1 0.310459 1 0.310459 1 
0.380841 1 0.380841 1 0.492669 1 0.492669 1 0 
1 0 1 0.340176 1 0.340176 1 0.35347 1 
0.35347 1 0 1 0 1 0 1 0 
1 0 1 0 1 0 1 0 1 
0 1 0 1 0.403519 1 0.403519 1 0.147019 
1 0.147019 1 0.316716 1 0.316716 1 0.399609 1 
0.399609 1 0.512219 1 0.512219 1 0.585728 1 0.585728 
1 0.468426 1 0.468426 1 0.268231 1 0.268231 1 
0 1 0 1 0 1 0 1 0 
1 0 1 0 1 0 1 0.352688 1 
0.352688 1 0 1 0 1 0 1 0 
1 0 1 0 1 0 1 0 1 
0.311241 1 0.311241 1 0 1 0 1 0 
1 0 1 0.557576 1 0.557576 1 0.4348 1 
0.4348 1 0.620137 1 0.620137 1 0.503617 1 0.503617 
1 0 1 0 1 0.154057 1 0.154057 1 
0.390225 1 0.390225 1 0 1 0 1 0 
1 0 1 0 1 0 1 0 1 
0 1 0 1 0 1 0 1 0 
1 0.25259 1 0.25259 1 0.44653 1 0.44653 1 
0 1 0 1 0 1 0 1 0 
1 0 1 0 1 0 1 0.633431 1 
0.633431 1 0 1 0 1 0 1 0 
1 0.4348 1 0.4348 1 0.499707 1 0.499707 1 
0 1 0 1 0 1 0 1 0 
1 0 1 0 1 0 1 0.202542 1 
0.202542 1 0 1 0 1 0.383187 1 0.383187 
1 0 1 0 1 0 1 0 1 
0 1 0 1 0.430108 1 0.430108 1 0 
1 0 1 0 1 0 1 0.343304 1 
0.343304 1 0.156403 1 0.156403 1 0.495797 1 0.495797 
1 0 1 0 1 0.492669 1 0.492669 1 
0.360508 1 0.360508 1 0.437928 1 0.437928 1 0 
1 0 1 0 1 0 1 0 1 
0 1 0.448876 1 0.448876 1 0.326882 1 0.326882 
1 0.406647 1 0.406647 1 0.452786 1 0.452786 1 
0.268231 1 0.268231 1 0 1 0 1 0 
1 0 1 0 1 0 1 0 1 
0 1 0.352688 1 0.352688 1 0 1 0 
1 0 1 0 1 0 1 0 1 
0 1 0 1 0.311241 1 0.311241 1 0 
1 0 1 0 1 0 1 0.557576 1 
0.557576 1 0.4348 1 0.4348 1 0.620137 1 0.620137 
1 0.503617 1 0.503617 1 0 1 0 1 
0.154057 1 0.154057 1 0.390225 1 0.390225 1 0 
1 0 1 0 1 0 1 0 1 
0 1 0 1 0 1 0 1 0 
1 0 1 0 1 0.25259 1 0.25259 1 
0.44653 1 0.44653 1 0 1 0 1 0 
1 0 1 0 1 0 1 0 1 
0 1 0.633431 1 0.633431 1 0 1 0 
1 0 1 0 1 0.4348 1 0.4348 1 
0.499707 1 0.499707 1 0 1 0 1 0 
1 0 1 0 1 0 1 0 1 
0 1 0.202542 1 0.202542 1 0 1 0 
1 0.383187 1 0.383187 1 0 1 0 1 
0 1 0 1 0 1 0 1 0.430108 
1 0.430108 1 0 1 0 1 0 1 
0 1 0.343304 1 0.343304 1 0.156403 1 0.156403 
1 0.495797 1 0.495797 1 0 1 0 1 
0.492669 1 0.492669 1 0.360508 1 0.360508 1 0.437928 
1 0.437928 1 0 1 0 1 0 1 
0 1 0 1 0 1 0.448876 1 0.448876 
1 0.326882 1 0.326882 1 0.406647 1 0.406647 1 
0.452786 1 0.452786 1 0 1 0 1 0 
1 0 1 0 1 0 1 0 1 
0 1 0.294037 1 0.294037 1 0 1 0 
1 0 1 0 1 0.267449 1 0.267449 1 
0.344086 1 0.344086 1 0 1 0 1 0 
1 0 1 0.308895 1 0.308895 1 0 1 
0 1 0.378495 1 0.378495 1 0 1 0 
1 0 1 0 1 0 1 0 1 
0 1 0 1 0 1 0 1 0.501271 
1 0.501271 1 0 1 0 1 0.577126 1 
0.577126 1 0 1 0 1 0 1 0 
1 0 1 0 1 0 1 0 1 
0.397263 1 0.397263 1 0.659238 1 0.659238 1 0 
1 0 1 0.45826 1 0.45826 1 0.247116 1 
0.247116 1 0 1 0 1 0 1 0 
1 0 1 0 1 0 1 0 1 
0.529423 1 0.529423 1 0.412903 1 0.412903 1 0 
1 0 1 0 1 0 1 0 1 
0 1 0 1 0 1 0 1 0 
1 0 1 0 1 0.254936 1 0.254936 1 
0.272141 1 0.272141 1 0 1 0 1 0.190811 
1 0.190811 1 0 1 0 1 0 1 
0 1 0 1 0 1 0.650635 1 0.650635 
1 0.330792 1 0.330792 1 0 1 0 1 
0 1 0 1 0.274487 1 0.274487 1 0.669404 
1 0.669404 1 0 1 0 1 0 1 
0 1 0 1 0 1 0.282307 1 0.282307 
1 0.575562 1 0.575562 1 0.293255 1 0.293255 1 
0 1 0 1 0 1 0 1 0 
1 0 1 0 1 0 1 0 1 
0 1 0 1 0 1 0.294037 1 0.294037 
1 0 1 0 1 0 1 0 1 
0.267449 1 0.267449 1 0.344086 1 0.344086 1 0 
1 0 1 0 1 0 1 0.308895 1 
0.308895 1 0 1 0 1 0.378495 1 0.378495 
1 0 1 0 1 0 1 0 1 
0 1 0 1 0 1 0 1 0 
1 0 1 0.501271 1 0.501271 1 0 1 
0 1 0.577126 1 0.577126 1 0 1 0 
1 0 1 0 1 0 1 0 1 
0 1 0 1 0.397263 1 0.397263 1 0.659238 
1 0.659238 1 0 1 0 1 0.45826 1 
0.45826 1 0.247116 1 0.247116 1 0 1 0 
1 0 1 0 1 0 1 0 1 
0 1 0 1 0.529423 1 0.529423 1 0.412903 
1 0.412903 1 0 1 0 1 0 1 
0 1 0 1 0 1 0 1 0 
1 0 1 0 1 0 1 0 1 
0.254936 1 0.254936 1 0.272141 1 0.272141 1 0 
1 0 1 0.190811 1 0.190811 1 0 1 
0 1 0 1 0 1 0 1 0 
1 0.650635 1 0.650635 1 0.330792 1 0.330792 1 
0 1 0 1 0 1 0 1 0.274487 
1 0.274487 1 0.669404 1 0.669404 1 0 1 
0 1 0 1 0 1 0 1 0 
1 0.282307 1 0.282307 1 0.575562 1 0.575562 1 
0.293255 1 0.293255 1 0 1 0 1 0 
1 0 1 0.430108 1 0.430108 1 0.398045 1 
0.398045 1 0.0477028 1 0.0477028 1 0.317498 1 0.317498 
1 0.337048 1 0.337048 1 0 1 0 1 
0.308895 1 0.308895 1 0 1 0 1 0.319062 
1 0.319062 1 0 1 0 1 0 1 
0 1 0.268231 1 0.268231 1 0.44262 1 0.44262 
1 0.466862 1 0.466862 1 0.369892 1 0.369892 1 
0.389443 1 0.389443 1 0.541153 1 0.541153 1 0.394917 
1 0.394917 1 0 1 0 1 0 1 
0 1 0.494233 1 0.494233 1 0 1 0 
1 0.262757 1 0.262757 1 0 1 0 1 
0.275269 1 0.275269 1 0 1 0 1 0.226002 
1 0.226002 1 0 1 0 1 0 1 
0 1 0.340176 1 0.340176 1 0.500489 1 0.500489 
1 0 1 0 1 0 1 0 1 
0 1 0 1 0.460606 1 0.460606 1 0.499707 
1 0.499707 1 0.4739 1 0.4739 1 0 1 
0 1 0.315934 1 0.315934 1 0.376149 1 0.376149 
1 0 1 0 1 0 1 0 1 
0.170479 1 0.170479 1 0 1 0 1 0 
1 0 1 0.338612 1 0.338612 1 0.473118 1 
0.473118 1 0.66393 1 0.66393 1 0.406647 1 0.406647 
1 0.479374 1 0.479374 1 0 1 0 1 
0.649853 1 0.649853 1 0.157185 1 0.157185 1 0 
1 0 1 0 1 0 1 0.554448 1 
0.554448 1 0.338612 1 0.338612 1 0 1 0 
1 0.641251 1 0.641251 1 0 1 0 1 
0 1 0 1 0.467644 1 0.467644 1 0 
1 0 1 0.376931 1 0.376931 1 0.430108 1 
0.430108 1 0.398045 1 0.398045 1 0.0477028 1 0.0477028 
1 0.317498 1 0.317498 1 0.337048 1 0.337048 1 
0 1 0 1 0.308895 1 0.308895 1 0 
1 0 1 0.319062 1 0.319062 1 0 1 
0 1 0 1 0 1 0.268231 1 0.268231 
1 0.44262 1 0.44262 1 0.466862 1 0.466862 1 
0.369892 1 0.369892 1 0.389443 1 0.389443 1 0.541153 
1 0.541153 1 0.394917 1 0.394917 1 0 1 
0 1 0 1 0 1 0.494233 1 0.494233 
1 0 1 0 1 0.262757 1 0.262757 1 
0 1 0 1 0.275269 1 0.275269 1 0 
1 0 1 0.226002 1 0.226002 1 0 1 
0 1 0 1 0 1 0.340176 1 0.340176 
1 0.500489 1 0.500489 1 0 1 0 1 
0 1 0 1 0 1 0 1 0.460606 
1 0.460606 1 0.499707 1 0.499707 1 0.4739 1 
0.4739 1 0 1 0 1 0.315934 1 0.315934 
1 0.376149 1 0.376149 1 0 1 0 1 
0 1 0 1 0.170479 1 0.170479 1 0 
1 0 1 0 1 0 1 0.338612 1 
0.338612 1 0.473118 1 0.473118 1 0.66393 1 0.66393 
1 0.406647 1 0.406647 1 0.479374 1 0.479374 1 
0 1 0 1 0.649853 1 0.649853 1 0.157185 
1 0.157185 1 0 1 0 1 0 1 
0 1 0.554448 1 0.554448 1 0.338612 1 0.338612 
1 0 1 0 1 0.641251 1 0.641251 1 
0 1 0 1 0 1 0 1 0.467644 
1 0.467644 1 0 1 0 1 0.376931 1 
0.376931 1 0.599805 1 0.599805 1 0 1 0 
1 0.519257 1 0.519257 1 0 1 0 1 
0 1 0 1 0 1 0 1 0 