# vtk DataFile Version 3.0
vtk output
ASCII
DATASET UNSTRUCTURED_GRID
POINTS 32 float
204 202 0 520 202 0 520 466 0 
204 466 0 204 178 0 218 178 0 
218 194 0 204 194 0 88 87 0 
526 87 0 526 489 0 88 489 0 
116 102 0 149 102 0 149 136 0 
116 136 0 223 186 0 511 186 0 
511 435 0 223 435 0 72 55 0 
522 55 0 522 443 0 72 443 0 
190 166 0 223 166 0 223 194 0 
190 194 0 191 167 0 221 167 0 
221 194 0 191 194 0 
CELLS 8 40
4 0 1 2 3 
4 4 5 6 7 
4 8 9 10 11 
4 12 13 14 15 
4 16 17 18 19 
4 20 21 22 23 
4 24 25 26 27 
4 28 29 30 31 

CELL_TYPES 8
9
9
9
9
9
9
9
9

CELL_DATA 8
FIELD FieldData 2
rank 1 8 int
0 0 1 1 2 2 3 3 
block 1 8 int
0 1 0 1 0 1 0 1 
