# vtk DataFile Version 3.0
vtk output
ASCII
DATASET UNSTRUCTURED_GRID
POINTS 128 float
424 435 0 511 435 0 511 466 0 
424 466 0 204 202 0 223 202 0 
223 290 0 204 290 0 204 178 0 
218 178 0 218 194 0 204 194 0 
511 409 0 520 409 0 520 466 0 
511 466 0 467 466 0 511 466 0 
511 489 0 467 489 0 511 466 0 
515 466 0 515 485 0 511 485 0 
520 443 0 521 443 0 521 445 0 
520 445 0 522 419 0 526 419 0 
526 435 0 522 435 0 116 102 0 
149 102 0 149 136 0 116 136 0 
223 178 0 266 178 0 266 186 0 
223 186 0 111 178 0 190 178 0 
190 194 0 111 194 0 124 194 0 
204 194 0 204 275 0 124 275 0 
204 134 0 218 134 0 218 166 0 
204 166 0 223 167 0 256 167 0 
256 178 0 223 178 0 218 146 0 
221 146 0 221 166 0 218 166 0 
223 166 0 244 166 0 244 167 0 
223 167 0 221 148 0 223 148 0 
223 166 0 221 166 0 223 150 0 
242 150 0 242 166 0 223 166 0 
88 102 0 116 102 0 116 136 0 
88 136 0 116 69 0 149 69 0 
149 102 0 116 102 0 149 93 0 
163 93 0 163 102 0 149 102 0 
72 55 0 116 55 0 116 102 0 
72 102 0 223 186 0 511 186 0 
511 435 0 223 435 0 520 417 0 
522 417 0 522 443 0 520 443 0 
102 166 0 190 166 0 190 178 0 
102 178 0 149 102 0 190 102 0 
190 166 0 149 166 0 204 194 0 
223 194 0 223 202 0 204 202 0 
190 124 0 204 124 0 204 166 0 
190 166 0 89 136 0 149 136 0 
149 166 0 89 166 0 204 166 0 
218 166 0 218 178 0 204 178 0 
218 166 0 223 166 0 223 194 0 
218 194 0 190 166 0 204 166 0 
204 194 0 190 194 0 
CELLS 32 160
4 0 1 2 3 
4 4 5 6 7 
4 8 9 10 11 
4 12 13 14 15 
4 16 17 18 19 
4 20 21 22 23 
4 24 25 26 27 
4 28 29 30 31 
4 32 33 34 35 
4 36 37 38 39 
4 40 41 42 43 
4 44 45 46 47 
4 48 49 50 51 
4 52 53 54 55 
4 56 57 58 59 
4 60 61 62 63 
4 64 65 66 67 
4 68 69 70 71 
4 72 73 74 75 
4 76 77 78 79 
4 80 81 82 83 
4 84 85 86 87 
4 88 89 90 91 
4 92 93 94 95 
4 96 97 98 99 
4 100 101 102 103 
4 104 105 106 107 
4 108 109 110 111 
4 112 113 114 115 
4 116 117 118 119 
4 120 121 122 123 
4 124 125 126 127 

CELL_TYPES 32
9
9
9
9
9
9
9
9
9
9
9
9
9
9
9
9
9
9
9
9
9
9
9
9
9
9
9
9
9
9
9
9

CELL_DATA 32
FIELD FieldData 2
rank 1 32 int
0 0 0 0 1 1 1 1 1 
2 2 2 2 2 2 2 2 2 
2 2 2 2 2 2 2 2 2 
2 2 3 3 3 
block 1 32 int
0 1 2 3 0 1 2 3 4 
0 1 2 3 4 5 6 7 8 
9 10 11 12 13 14 15 16 17 
18 19 0 1 2 
