# vtk DataFile Version 3.0
vtk output
ASCII
DATASET UNSTRUCTURED_GRID
POINTS 128 float
408 419 0 526 419 0 526 482 0 
408 482 0 188 186 0 239 186 0 
239 306 0 188 306 0 188 162 0 
234 162 0 234 210 0 188 210 0 
495 393 0 526 393 0 526 482 0 
495 482 0 451 450 0 526 450 0 
526 489 0 451 489 0 495 450 0 
526 450 0 526 489 0 495 489 0 
504 427 0 526 427 0 526 461 0 
504 461 0 506 403 0 526 403 0 
526 451 0 506 451 0 100 86 0 
165 86 0 165 152 0 100 152 0 
207 162 0 282 162 0 282 202 0 
207 202 0 95 162 0 206 162 0 
206 210 0 95 210 0 108 178 0 
220 178 0 220 291 0 108 291 0 
188 118 0 234 118 0 234 182 0 
188 182 0 207 151 0 272 151 0 
272 194 0 207 194 0 202 130 0 
237 130 0 237 182 0 202 182 0 
207 150 0 260 150 0 260 183 0 
207 183 0 205 132 0 239 132 0 
239 182 0 205 182 0 207 134 0 
258 134 0 258 182 0 207 182 0 
72 86 0 132 86 0 132 152 0 
72 152 0 100 55 0 165 55 0 
165 118 0 100 118 0 133 77 0 
179 77 0 179 118 0 133 118 0 
72 55 0 132 55 0 132 118 0 
72 118 0 207 170 0 526 170 0 
526 451 0 207 451 0 504 401 0 
526 401 0 526 459 0 504 459 0 
86 150 0 206 150 0 206 194 0 
86 194 0 133 86 0 206 86 0 
206 182 0 133 182 0 188 178 0 
239 178 0 239 218 0 188 218 0 
174 108 0 220 108 0 220 182 0 
174 182 0 73 120 0 165 120 0 
165 182 0 73 182 0 188 150 0 
234 150 0 234 194 0 188 194 0 
202 150 0 239 150 0 239 210 0 
202 210 0 174 150 0 220 150 0 
220 210 0 174 210 0 
CELLS 32 160
4 0 1 2 3 
4 4 5 6 7 
4 8 9 10 11 
4 12 13 14 15 
4 16 17 18 19 
4 20 21 22 23 
4 24 25 26 27 
4 28 29 30 31 
4 32 33 34 35 
4 36 37 38 39 
4 40 41 42 43 
4 44 45 46 47 
4 48 49 50 51 
4 52 53 54 55 
4 56 57 58 59 
4 60 61 62 63 
4 64 65 66 67 
4 68 69 70 71 
4 72 73 74 75 
4 76 77 78 79 
4 80 81 82 83 
4 84 85 86 87 
4 88 89 90 91 
4 92 93 94 95 
4 96 97 98 99 
4 100 101 102 103 
4 104 105 106 107 
4 108 109 110 111 
4 112 113 114 115 
4 116 117 118 119 
4 120 121 122 123 
4 124 125 126 127 

CELL_TYPES 32
9
9
9
9
9
9
9
9
9
9
9
9
9
9
9
9
9
9
9
9
9
9
9
9
9
9
9
9
9
9
9
9

CELL_DATA 32
FIELD FieldData 2
rank 1 32 int
0 0 0 0 1 1 1 1 1 
2 2 2 2 2 2 2 2 2 
2 2 2 2 2 2 2 2 2 
2 2 3 3 3 
block 1 32 int
0 1 2 3 0 1 2 3 4 
0 1 2 3 4 5 6 7 8 
9 10 11 12 13 14 15 16 17 
18 19 0 1 2 
