# vtk DataFile Version 3.0
vtk output
ASCII
DATASET UNSTRUCTURED_GRID
POINTS 4 float
0 0 0 537 0 0 537 514 0 
0 514 0 
CELLS 1 5
4 0 1 2 3 

CELL_TYPES 1
9

CELL_DATA 1
FIELD FieldData 1
rank 1 1 int
2 
