# vtk DataFile Version 3.0
vtk output
ASCII
DATASET UNSTRUCTURED_GRID
POINTS 24 float
59 68 0 200 68 0 200 200 0 
59 200 0 49 7 0 123 7 0 
123 83 0 49 83 0 0 0 0 
200 0 0 200 200 0 0 200 0 
0 0 0 200 0 0 200 138 0 
0 138 0 15 0 0 125 0 0 
125 82 0 15 82 0 37 0 0 
125 0 0 125 82 0 37 82 0 

CELLS 6 30
4 0 1 2 3 
4 4 5 6 7 
4 8 9 10 11 
4 12 13 14 15 
4 16 17 18 19 
4 20 21 22 23 

CELL_TYPES 6
9
9
9
9
9
9

CELL_DATA 6
FIELD FieldData 2
rank 1 6 int
0 0 1 2 3 3 
block 1 6 int
0 1 0 0 0 1 
