# vtk DataFile Version 3.0
vtk output
ASCII
DATASET UNSTRUCTURED_GRID
POINTS 24 float
77 86 0 200 86 0 200 200 0 
77 200 0 67 25 0 105 25 0 
105 65 0 67 65 0 0 0 0 
200 0 0 200 200 0 0 200 0 
0 0 0 200 0 0 200 120 0 
0 120 0 33 0 0 107 0 0 
107 64 0 33 64 0 55 0 0 
107 0 0 107 64 0 55 64 0 

CELLS 6 30
4 0 1 2 3 
4 4 5 6 7 
4 8 9 10 11 
4 12 13 14 15 
4 16 17 18 19 
4 20 21 22 23 

CELL_TYPES 6
9
9
9
9
9
9

CELL_DATA 6
FIELD FieldData 2
rank 1 6 int
0 0 1 2 3 3 
block 1 6 int
0 1 0 0 0 1 
