# vtk DataFile Version 3.0
vtk output
ASCII
DATASET UNSTRUCTURED_GRID
POINTS 16 float
82 0 0 200 0 0 200 118 0 
82 118 0 82 82 0 200 82 0 
200 200 0 82 200 0 0 0 0 
118 0 0 118 118 0 0 118 0 
0 82 0 118 82 0 118 200 0 
0 200 0 
CELLS 4 20
4 0 1 2 3 
4 4 5 6 7 
4 8 9 10 11 
4 12 13 14 15 

CELL_TYPES 4
9
9
9
9

CELL_DATA 4
FIELD FieldData 2
rank 1 4 int
0 1 2 3 
block 1 4 int
0 0 0 0 
